 Entering Gaussian System, Link 0=/usr/local/apps//g09/g09
 Input=geo.com
 Output=geo.out3
 Initial command:
 /usr/local/apps//g09/l1.exe "/tmp/bnp.229380.sequoia/Gau-8397.inp" -scrdir="/tmp/bnp.229380.sequoia/"
 Entering Link 1 = /usr/local/apps//g09/l1.exe PID=      8398.
  
 Copyright (c) 1988,1990,1992,1993,1995,1998,2003,2009,2013,
            Gaussian, Inc.  All Rights Reserved.
  
 This is part of the Gaussian(R) 09 program.  It is based on
 the Gaussian(R) 03 system (copyright 2003, Gaussian, Inc.),
 the Gaussian(R) 98 system (copyright 1998, Gaussian, Inc.),
 the Gaussian(R) 94 system (copyright 1995, Gaussian, Inc.),
 the Gaussian 92(TM) system (copyright 1992, Gaussian, Inc.),
 the Gaussian 90(TM) system (copyright 1990, Gaussian, Inc.),
 the Gaussian 88(TM) system (copyright 1988, Gaussian, Inc.),
 the Gaussian 86(TM) system (copyright 1986, Carnegie Mellon
 University), and the Gaussian 82(TM) system (copyright 1983,
 Carnegie Mellon University). Gaussian is a federally registered
 trademark of Gaussian, Inc.
  
 This software contains proprietary and confidential information,
 including trade secrets, belonging to Gaussian, Inc.
  
 This software is provided under written license and may be
 used, copied, transmitted, or stored only in accord with that
 written license.
  
 The following legend is applicable only to US Government
 contracts under FAR:
  
                    RESTRICTED RIGHTS LEGEND
  
 Use, reproduction and disclosure by the US Government is
 subject to restrictions as set forth in subparagraphs (a)
 and (c) of the Commercial Computer Software - Restricted
 Rights clause in FAR 52.227-19.
  
 Gaussian, Inc.
 340 Quinnipiac St., Bldg. 40, Wallingford CT 06492
  
  
 ---------------------------------------------------------------
 Warning -- This program may not be used in any manner that
 competes with the business of Gaussian, Inc. or will provide
 assistance to any competitor of Gaussian, Inc.  The licensee
 of this program is prohibited from giving any competitor of
 Gaussian, Inc. access to this program.  By using this program,
 the user acknowledges that Gaussian, Inc. is engaged in the
 business of creating and licensing software in the field of
 computational chemistry and represents and warrants to the
 licensee that it is not a competitor of Gaussian, Inc. and that
 it will not use this program in any manner prohibited above.
 ---------------------------------------------------------------
  

 Cite this work as:
 Gaussian 09, Revision D.01,
 M. J. Frisch, G. W. Trucks, H. B. Schlegel, G. E. Scuseria, 
 M. A. Robb, J. R. Cheeseman, G. Scalmani, V. Barone, B. Mennucci, 
 G. A. Petersson, H. Nakatsuji, M. Caricato, X. Li, H. P. Hratchian, 
 A. F. Izmaylov, J. Bloino, G. Zheng, J. L. Sonnenberg, M. Hada, 
 M. Ehara, K. Toyota, R. Fukuda, J. Hasegawa, M. Ishida, T. Nakajima, 
 Y. Honda, O. Kitao, H. Nakai, T. Vreven, J. A. Montgomery, Jr., 
 J. E. Peralta, F. Ogliaro, M. Bearpark, J. J. Heyd, E. Brothers, 
 K. N. Kudin, V. N. Staroverov, T. Keith, R. Kobayashi, J. Normand, 
 K. Raghavachari, A. Rendell, J. C. Burant, S. S. Iyengar, J. Tomasi, 
 M. Cossi, N. Rega, J. M. Millam, M. Klene, J. E. Knox, J. B. Cross, 
 V. Bakken, C. Adamo, J. Jaramillo, R. Gomperts, R. E. Stratmann, 
 O. Yazyev, A. J. Austin, R. Cammi, C. Pomelli, J. W. Ochterski, 
 R. L. Martin, K. Morokuma, V. G. Zakrzewski, G. A. Voth, 
 P. Salvador, J. J. Dannenberg, S. Dapprich, A. D. Daniels, 
 O. Farkas, J. B. Foresman, J. V. Ortiz, J. Cioslowski, 
 and D. J. Fox, Gaussian, Inc., Wallingford CT, 2013.
 
 ******************************************
 Gaussian 09:  ES64L-G09RevD.01 24-Apr-2013
                21-Jun-2019 
 ******************************************
 ------------------------------------------------
 #N wB97XD/6-31+G(d,p) OPT FREQ Geom=Connectivity
 ------------------------------------------------
 1/14=-1,18=20,19=15,26=3,38=1,57=2/1,3;
 2/9=110,12=2,17=6,18=5,40=1/2;
 3/5=1,6=6,7=111,11=2,16=1,25=1,30=1,71=1,74=-58/1,2,3;
 4//1;
 5/5=2,38=5/2;
 6/7=2,8=2,9=2,10=2,28=1/1;
 7//1,2,3,16;
 1/14=-1,18=20,19=15,26=3/3(2);
 2/9=110/2;
 99//99;
 2/9=110/2;
 3/5=1,6=6,7=111,11=2,16=1,25=1,30=1,71=1,74=-58/1,2,3;
 4/5=5,16=3,69=1/1;
 5/5=2,38=5/2;
 7//1,2,3,16;
 1/14=-1,18=20,19=15,26=3/3(-5);
 2/9=110/2;
 6/7=2,8=2,9=2,10=2,19=2,28=1/1;
 99/9=1/99;
 --------
 C8H16O24
 --------
 Symbolic Z-matrix:
 Charge =  0 Multiplicity = 1
 C                     0.        0.        0. 
 O                     1.1868    0.52552   0. 
 H                     1.89031  -0.18322   0. 
 O                    -0.9521    0.88819   0. 
 H                    -1.84021   0.4438    0. 
 O                    -0.21447  -1.23213   0. 
 C                    -6.37683   1.04996   0. 
 O                    -5.20714   1.62656   0. 
 H                    -4.49947   0.92996   0. 
 O                    -7.35621   1.94402   0. 
 H                    -8.19139   1.45946   0. 
 O                    -6.58853  -0.16078   0. 
 C                     2.81967  -2.55459   0. 
 O                     3.79854  -3.44924   0. 
 H                     4.6339   -2.96494   0. 
 O                     1.64966  -3.13078   0. 
 H                     0.94252  -2.43361   0. 
 O                     3.03185  -1.34402   0. 
 C                    -3.55572  -1.50316   0. 
 O                    -2.60314  -2.39089   0. 
 H                    -1.71501  -1.94587   0. 
 O                    -4.74247  -2.02922   0. 
 H                    -5.44619  -1.32065   0. 
 O                    -3.34197  -0.27105   0. 
 O                    -0.42665   16.70927   0. 
 C                    -0.21447   17.91983   0. 
 O                     0.95554   18.49603   0. 
 H                     1.66268   17.79886   0. 
 O                    -1.19334   18.81449   0. 
 H                    -2.02869   18.33019   0. 
 O                     2.81967   16.59738   0. 
 C                     2.6052    15.36525   0. 
 O                     3.5573    14.47706   0. 
 H                     4.44541   14.92145   0. 
 O                     1.4184    14.83973   0. 
 H                     0.71489   15.54847   0. 
 O                     5.94717   15.6363   0. 
 C                     6.16092   16.86841   0. 
 O                     7.34767   17.39446   0. 
 H                     8.05139   16.6859   0. 
 O                     5.20834   17.75614   0. 
 H                     4.32021   17.31111   0. 
 O                     9.19373   15.52603   0. 
 C                     8.98203   14.31528   0. 
 O                     9.96141   13.42123   0. 
 H                     10.79659   13.90579   0. 
 O                     7.81234   13.73869   0. 
 H                     7.10467   14.43529   0. 
 
 Add virtual bond connecting atoms H23        and O12        Dist= 3.08D+00.
 Add virtual bond connecting atoms O24        and H9         Dist= 3.15D+00.
 Add virtual bond connecting atoms O43        and H40        Dist= 3.08D+00.
 Add virtual bond connecting atoms H48        and O37        Dist= 3.15D+00.
 Add virtual bond connecting atoms H17        and O6         Dist= 3.15D+00.
 Add virtual bond connecting atoms O18        and H3         Dist= 3.08D+00.
 Add virtual bond connecting atoms O31        and H28        Dist= 3.15D+00.
 Add virtual bond connecting atoms H36        and O25        Dist= 3.08D+00.
 Add virtual bond connecting atoms H21        and O6         Dist= 3.14D+00.
 Add virtual bond connecting atoms O24        and H5         Dist= 3.14D+00.
 Add virtual bond connecting atoms O37        and H34        Dist= 3.14D+00.
 Add virtual bond connecting atoms H42        and O31        Dist= 3.14D+00.
 Add virtual bond connecting atoms O33        and O2         Dist= 2.67D+01.
 Add virtual bond connecting atoms O35        and O4         Dist= 2.67D+01.

 GradGradGradGradGradGradGradGradGradGradGradGradGradGradGradGradGradGrad
 Berny optimization.
 Initialization pass.
                           ----------------------------
                           !    Initial Parameters    !
                           ! (Angstroms and Degrees)  !
 --------------------------                            --------------------------
 ! Name  Definition              Value          Derivative Info.                !
 --------------------------------------------------------------------------------
 ! R1    R(1,2)                  1.2979         estimate D2E/DX2                !
 ! R2    R(1,4)                  1.3021         estimate D2E/DX2                !
 ! R3    R(1,6)                  1.2507         estimate D2E/DX2                !
 ! R4    R(2,3)                  0.9986         estimate D2E/DX2                !
 ! R5    R(2,33)                14.1515         estimate D2E/DX2                !
 ! R6    R(3,18)                 1.6281         estimate D2E/DX2                !
 ! R7    R(4,5)                  0.9931         estimate D2E/DX2                !
 ! R8    R(4,35)                14.1515         estimate D2E/DX2                !
 ! R9    R(5,24)                 1.6632         estimate D2E/DX2                !
 ! R10   R(6,17)                 1.668          estimate D2E/DX2                !
 ! R11   R(6,21)                 1.6616         estimate D2E/DX2                !
 ! R12   R(7,8)                  1.3041         estimate D2E/DX2                !
 ! R13   R(7,10)                 1.3261         estimate D2E/DX2                !
 ! R14   R(7,12)                 1.2291         estimate D2E/DX2                !
 ! R15   R(8,9)                  0.993          estimate D2E/DX2                !
 ! R16   R(9,24)                 1.668          estimate D2E/DX2                !
 ! R17   R(10,11)                0.9656         estimate D2E/DX2                !
 ! R18   R(12,23)                1.628          estimate D2E/DX2                !
 ! R19   R(13,14)                1.3261         estimate D2E/DX2                !
 ! R20   R(13,16)                1.3042         estimate D2E/DX2                !
 ! R21   R(13,18)                1.229          estimate D2E/DX2                !
 ! R22   R(14,15)                0.9656         estimate D2E/DX2                !
 ! R23   R(16,17)                0.993          estimate D2E/DX2                !
 ! R24   R(19,20)                1.3021         estimate D2E/DX2                !
 ! R25   R(19,22)                1.2981         estimate D2E/DX2                !
 ! R26   R(19,24)                1.2505         estimate D2E/DX2                !
 ! R27   R(20,21)                0.9934         estimate D2E/DX2                !
 ! R28   R(22,23)                0.9986         estimate D2E/DX2                !
 ! R29   R(25,26)                1.229          estimate D2E/DX2                !
 ! R30   R(25,36)                1.6281         estimate D2E/DX2                !
 ! R31   R(26,27)                1.3042         estimate D2E/DX2                !
 ! R32   R(26,29)                1.3261         estimate D2E/DX2                !
 ! R33   R(27,28)                0.993          estimate D2E/DX2                !
 ! R34   R(28,31)                1.668          estimate D2E/DX2                !
 ! R35   R(29,30)                0.9656         estimate D2E/DX2                !
 ! R36   R(31,32)                1.2507         estimate D2E/DX2                !
 ! R37   R(31,42)                1.6616         estimate D2E/DX2                !
 ! R38   R(32,33)                1.3021         estimate D2E/DX2                !
 ! R39   R(32,35)                1.2979         estimate D2E/DX2                !
 ! R40   R(33,34)                0.9931         estimate D2E/DX2                !
 ! R41   R(34,37)                1.6632         estimate D2E/DX2                !
 ! R42   R(35,36)                0.9986         estimate D2E/DX2                !
 ! R43   R(37,38)                1.2505         estimate D2E/DX2                !
 ! R44   R(37,48)                1.668          estimate D2E/DX2                !
 ! R45   R(38,39)                1.2981         estimate D2E/DX2                !
 ! R46   R(38,41)                1.3021         estimate D2E/DX2                !
 ! R47   R(39,40)                0.9986         estimate D2E/DX2                !
 ! R48   R(40,43)                1.628          estimate D2E/DX2                !
 ! R49   R(41,42)                0.9934         estimate D2E/DX2                !
 ! R50   R(43,44)                1.2291         estimate D2E/DX2                !
 ! R51   R(44,45)                1.3261         estimate D2E/DX2                !
 ! R52   R(44,47)                1.3041         estimate D2E/DX2                !
 ! R53   R(45,46)                0.9656         estimate D2E/DX2                !
 ! R54   R(47,48)                0.993          estimate D2E/DX2                !
 ! A1    A(2,1,4)              113.105          estimate D2E/DX2                !
 ! A2    A(2,1,6)              123.7581         estimate D2E/DX2                !
 ! A3    A(4,1,6)              123.1369         estimate D2E/DX2                !
 ! A4    A(1,2,3)              110.9037         estimate D2E/DX2                !
 ! A5    A(1,2,33)             123.527          estimate D2E/DX2                !
 ! A6    A(3,2,33)             125.5694         estimate D2E/DX2                !
 ! A7    A(1,4,5)              110.4066         estimate D2E/DX2                !
 ! A8    A(1,4,35)             123.3681         estimate D2E/DX2                !
 ! A9    A(5,4,35)             126.2253         estimate D2E/DX2                !
 ! A10   A(1,6,17)             126.2064         estimate D2E/DX2                !
 ! A11   A(1,6,21)             125.3123         estimate D2E/DX2                !
 ! A12   A(17,6,21)            108.4812         estimate D2E/DX2                !
 ! A13   A(8,7,10)             111.3669         estimate D2E/DX2                !
 ! A14   A(8,7,12)             126.1589         estimate D2E/DX2                !
 ! A15   A(10,7,12)            122.4741         estimate D2E/DX2                !
 ! A16   A(7,8,9)              109.2105         estimate D2E/DX2                !
 ! A17   A(7,10,11)            107.4861         estimate D2E/DX2                !
 ! A18   A(7,12,23)            125.5182         estimate D2E/DX2                !
 ! A19   A(14,13,16)           111.3551         estimate D2E/DX2                !
 ! A20   A(14,13,18)           122.4846         estimate D2E/DX2                !
 ! A21   A(16,13,18)           126.1604         estimate D2E/DX2                !
 ! A22   A(13,14,15)           107.4709         estimate D2E/DX2                !
 ! A23   A(13,16,17)           109.1878         estimate D2E/DX2                !
 ! A24   A(3,18,13)            125.5375         estimate D2E/DX2                !
 ! A25   A(20,19,22)           113.1114         estimate D2E/DX2                !
 ! A26   A(20,19,24)           123.14           estimate D2E/DX2                !
 ! A27   A(22,19,24)           123.7486         estimate D2E/DX2                !
 ! A28   A(19,20,21)           110.4036         estimate D2E/DX2                !
 ! A29   A(19,22,23)           110.8969         estimate D2E/DX2                !
 ! A30   A(5,24,9)             108.4887         estimate D2E/DX2                !
 ! A31   A(5,24,19)            125.2966         estimate D2E/DX2                !
 ! A32   A(9,24,19)            126.2147         estimate D2E/DX2                !
 ! A33   A(26,25,36)           125.5375         estimate D2E/DX2                !
 ! A34   A(25,26,27)           126.1604         estimate D2E/DX2                !
 ! A35   A(25,26,29)           122.4846         estimate D2E/DX2                !
 ! A36   A(27,26,29)           111.3551         estimate D2E/DX2                !
 ! A37   A(26,27,28)           109.1878         estimate D2E/DX2                !
 ! A38   A(26,29,30)           107.4709         estimate D2E/DX2                !
 ! A39   A(28,31,32)           126.2064         estimate D2E/DX2                !
 ! A40   A(28,31,42)           108.4812         estimate D2E/DX2                !
 ! A41   A(32,31,42)           125.3123         estimate D2E/DX2                !
 ! A42   A(31,32,33)           123.1369         estimate D2E/DX2                !
 ! A43   A(31,32,35)           123.7581         estimate D2E/DX2                !
 ! A44   A(33,32,35)           113.105          estimate D2E/DX2                !
 ! A45   A(2,33,32)            123.3681         estimate D2E/DX2                !
 ! A46   A(2,33,34)            126.2253         estimate D2E/DX2                !
 ! A47   A(32,33,34)           110.4066         estimate D2E/DX2                !
 ! A48   A(4,35,32)            123.527          estimate D2E/DX2                !
 ! A49   A(4,35,36)            125.5694         estimate D2E/DX2                !
 ! A50   A(32,35,36)           110.9037         estimate D2E/DX2                !
 ! A51   A(34,37,38)           125.2966         estimate D2E/DX2                !
 ! A52   A(34,37,48)           108.4887         estimate D2E/DX2                !
 ! A53   A(38,37,48)           126.2147         estimate D2E/DX2                !
 ! A54   A(37,38,39)           123.7486         estimate D2E/DX2                !
 ! A55   A(37,38,41)           123.14           estimate D2E/DX2                !
 ! A56   A(39,38,41)           113.1114         estimate D2E/DX2                !
 ! A57   A(38,39,40)           110.8969         estimate D2E/DX2                !
 ! A58   A(38,41,42)           110.4036         estimate D2E/DX2                !
 ! A59   A(40,43,44)           125.5182         estimate D2E/DX2                !
 ! A60   A(43,44,45)           122.4741         estimate D2E/DX2                !
 ! A61   A(43,44,47)           126.1589         estimate D2E/DX2                !
 ! A62   A(45,44,47)           111.3669         estimate D2E/DX2                !
 ! A63   A(44,45,46)           107.4861         estimate D2E/DX2                !
 ! A64   A(44,47,48)           109.2105         estimate D2E/DX2                !
 ! A65   L(2,3,18,6,-1)        179.7332         estimate D2E/DX2                !
 ! A66   L(4,5,24,6,-1)        181.1277         estimate D2E/DX2                !
 ! A67   L(8,9,24,12,-1)       178.492          estimate D2E/DX2                !
 ! A68   L(6,17,16,18,-1)      178.5129         estimate D2E/DX2                !
 ! A69   L(6,21,20,8,-1)       181.1763         estimate D2E/DX2                !
 ! A70   L(12,23,22,4,-1)      179.7602         estimate D2E/DX2                !
 ! A71   L(27,28,31,7,-1)      178.5129         estimate D2E/DX2                !
 ! A72   L(33,34,37,27,-1)     181.1277         estimate D2E/DX2                !
 ! A73   L(25,36,35,7,-1)      180.2668         estimate D2E/DX2                !
 ! A74   L(39,40,43,1,-1)      179.7602         estimate D2E/DX2                !
 ! A75   L(31,42,41,37,-1)     181.1763         estimate D2E/DX2                !
 ! A76   L(37,48,47,1,-1)      181.508          estimate D2E/DX2                !
 ! A77   L(2,3,18,6,-2)        180.0            estimate D2E/DX2                !
 ! A78   L(4,5,24,6,-2)        180.0            estimate D2E/DX2                !
 ! A79   L(8,9,24,12,-2)       180.0            estimate D2E/DX2                !
 ! A80   L(6,17,16,18,-2)      180.0            estimate D2E/DX2                !
 ! A81   L(6,21,20,8,-2)       180.0            estimate D2E/DX2                !
 ! A82   L(12,23,22,4,-2)      180.0            estimate D2E/DX2                !
 ! A83   L(27,28,31,7,-2)      180.0            estimate D2E/DX2                !
 ! A84   L(33,34,37,27,-2)     180.0            estimate D2E/DX2                !
 ! A85   L(25,36,35,7,-2)      180.0            estimate D2E/DX2                !
 ! A86   L(39,40,43,1,-2)      180.0            estimate D2E/DX2                !
 ! A87   L(31,42,41,37,-2)     180.0            estimate D2E/DX2                !
 ! A88   L(37,48,47,1,-2)      180.0            estimate D2E/DX2                !
 ! D1    D(4,1,2,3)            180.0            estimate D2E/DX2                !
 ! D2    D(4,1,2,33)             0.0            estimate D2E/DX2                !
 ! D3    D(6,1,2,3)              0.0            estimate D2E/DX2                !
 ! D4    D(6,1,2,33)           180.0            estimate D2E/DX2                !
 ! D5    D(2,1,4,5)            180.0            estimate D2E/DX2                !
 ! D6    D(2,1,4,35)             0.0            estimate D2E/DX2                !
 ! D7    D(6,1,4,5)              0.0            estimate D2E/DX2                !
 ! D8    D(6,1,4,35)           180.0            estimate D2E/DX2                !
 ! D9    D(2,1,6,17)             0.0            estimate D2E/DX2                !
 ! D10   D(2,1,6,21)           180.0            estimate D2E/DX2                !
 ! D11   D(4,1,6,17)           180.0            estimate D2E/DX2                !
 ! D12   D(4,1,6,21)             0.0            estimate D2E/DX2                !
 ! D13   D(1,2,18,13)            0.0            estimate D2E/DX2                !
 ! D14   D(33,2,18,13)         180.0            estimate D2E/DX2                !
 ! D15   D(1,2,33,32)            0.0            estimate D2E/DX2                !
 ! D16   D(1,2,33,34)          180.0            estimate D2E/DX2                !
 ! D17   D(3,2,33,32)          180.0            estimate D2E/DX2                !
 ! D18   D(3,2,33,34)            0.0            estimate D2E/DX2                !
 ! D19   D(1,4,24,9)           180.0            estimate D2E/DX2                !
 ! D20   D(1,4,24,19)            0.0            estimate D2E/DX2                !
 ! D21   D(35,4,24,9)            0.0            estimate D2E/DX2                !
 ! D22   D(35,4,24,19)         180.0            estimate D2E/DX2                !
 ! D23   D(1,4,35,32)            0.0            estimate D2E/DX2                !
 ! D24   D(1,4,35,36)          180.0            estimate D2E/DX2                !
 ! D25   D(5,4,35,32)          180.0            estimate D2E/DX2                !
 ! D26   D(5,4,35,36)            0.0            estimate D2E/DX2                !
 ! D27   D(1,6,16,13)            0.0            estimate D2E/DX2                !
 ! D28   D(21,6,16,13)         180.0            estimate D2E/DX2                !
 ! D29   D(1,6,20,19)            0.0            estimate D2E/DX2                !
 ! D30   D(17,6,20,19)         180.0            estimate D2E/DX2                !
 ! D31   D(10,7,8,9)           180.0            estimate D2E/DX2                !
 ! D32   D(12,7,8,9)             0.0            estimate D2E/DX2                !
 ! D33   D(8,7,10,11)          180.0            estimate D2E/DX2                !
 ! D34   D(12,7,10,11)           0.0            estimate D2E/DX2                !
 ! D35   D(8,7,12,23)            0.0            estimate D2E/DX2                !
 ! D36   D(10,7,12,23)         180.0            estimate D2E/DX2                !
 ! D37   D(7,8,24,5)           180.0            estimate D2E/DX2                !
 ! D38   D(7,8,24,19)            0.0            estimate D2E/DX2                !
 ! D39   D(7,12,22,19)           0.0            estimate D2E/DX2                !
 ! D40   D(16,13,14,15)        180.0            estimate D2E/DX2                !
 ! D41   D(18,13,14,15)          0.0            estimate D2E/DX2                !
 ! D42   D(14,13,16,17)        180.0            estimate D2E/DX2                !
 ! D43   D(18,13,16,17)          0.0            estimate D2E/DX2                !
 ! D44   D(14,13,18,3)         180.0            estimate D2E/DX2                !
 ! D45   D(16,13,18,3)           0.0            estimate D2E/DX2                !
 ! D46   D(22,19,20,21)        180.0            estimate D2E/DX2                !
 ! D47   D(24,19,20,21)          0.0            estimate D2E/DX2                !
 ! D48   D(20,19,22,23)        180.0            estimate D2E/DX2                !
 ! D49   D(24,19,22,23)          0.0            estimate D2E/DX2                !
 ! D50   D(20,19,24,5)           0.0            estimate D2E/DX2                !
 ! D51   D(20,19,24,9)         180.0            estimate D2E/DX2                !
 ! D52   D(22,19,24,5)         180.0            estimate D2E/DX2                !
 ! D53   D(22,19,24,9)           0.0            estimate D2E/DX2                !
 ! D54   D(36,25,26,27)          0.0            estimate D2E/DX2                !
 ! D55   D(36,25,26,29)        180.0            estimate D2E/DX2                !
 ! D56   D(26,25,35,4)         180.0            estimate D2E/DX2                !
 ! D57   D(26,25,35,32)          0.0            estimate D2E/DX2                !
 ! D58   D(25,26,27,28)          0.0            estimate D2E/DX2                !
 ! D59   D(29,26,27,28)        180.0            estimate D2E/DX2                !
 ! D60   D(25,26,29,30)          0.0            estimate D2E/DX2                !
 ! D61   D(27,26,29,30)        180.0            estimate D2E/DX2                !
 ! D62   D(26,27,31,32)          0.0            estimate D2E/DX2                !
 ! D63   D(26,27,31,42)        180.0            estimate D2E/DX2                !
 ! D64   D(28,31,32,33)        180.0            estimate D2E/DX2                !
 ! D65   D(28,31,32,35)          0.0            estimate D2E/DX2                !
 ! D66   D(42,31,32,33)          0.0            estimate D2E/DX2                !
 ! D67   D(42,31,32,35)        180.0            estimate D2E/DX2                !
 ! D68   D(28,31,41,38)        180.0            estimate D2E/DX2                !
 ! D69   D(32,31,41,38)          0.0            estimate D2E/DX2                !
 ! D70   D(31,32,33,2)         180.0            estimate D2E/DX2                !
 ! D71   D(31,32,33,34)          0.0            estimate D2E/DX2                !
 ! D72   D(35,32,33,2)           0.0            estimate D2E/DX2                !
 ! D73   D(35,32,33,34)        180.0            estimate D2E/DX2                !
 ! D74   D(31,32,35,4)         180.0            estimate D2E/DX2                !
 ! D75   D(31,32,35,36)          0.0            estimate D2E/DX2                !
 ! D76   D(33,32,35,4)           0.0            estimate D2E/DX2                !
 ! D77   D(33,32,35,36)        180.0            estimate D2E/DX2                !
 ! D78   D(2,33,37,38)         180.0            estimate D2E/DX2                !
 ! D79   D(2,33,37,48)           0.0            estimate D2E/DX2                !
 ! D80   D(32,33,37,38)          0.0            estimate D2E/DX2                !
 ! D81   D(32,33,37,48)        180.0            estimate D2E/DX2                !
 ! D82   D(34,37,38,39)        180.0            estimate D2E/DX2                !
 ! D83   D(34,37,38,41)          0.0            estimate D2E/DX2                !
 ! D84   D(48,37,38,39)          0.0            estimate D2E/DX2                !
 ! D85   D(48,37,38,41)        180.0            estimate D2E/DX2                !
 ! D86   D(34,37,47,44)        180.0            estimate D2E/DX2                !
 ! D87   D(38,37,47,44)          0.0            estimate D2E/DX2                !
 ! D88   D(37,38,39,40)          0.0            estimate D2E/DX2                !
 ! D89   D(41,38,39,40)        180.0            estimate D2E/DX2                !
 ! D90   D(37,38,41,42)          0.0            estimate D2E/DX2                !
 ! D91   D(39,38,41,42)        180.0            estimate D2E/DX2                !
 ! D92   D(38,39,43,44)          0.0            estimate D2E/DX2                !
 ! D93   D(40,43,44,45)        180.0            estimate D2E/DX2                !
 ! D94   D(40,43,44,47)          0.0            estimate D2E/DX2                !
 ! D95   D(43,44,45,46)          0.0            estimate D2E/DX2                !
 ! D96   D(47,44,45,46)        180.0            estimate D2E/DX2                !
 ! D97   D(43,44,47,48)          0.0            estimate D2E/DX2                !
 ! D98   D(45,44,47,48)        180.0            estimate D2E/DX2                !
 --------------------------------------------------------------------------------
 Trust Radius=3.00D-01 FncErr=1.00D-07 GrdErr=1.00D-06
 Number of steps in this run=    250 maximum allowed number of steps=    288.
 GradGradGradGradGradGradGradGradGradGradGradGradGradGradGradGradGradGrad

                          Input orientation:                          
 ---------------------------------------------------------------------
 Center     Atomic      Atomic             Coordinates (Angstroms)
 Number     Number       Type             X           Y           Z
 ---------------------------------------------------------------------
      1          6           0        0.000000    0.000000    0.000000
      2          8           0        1.186800    0.525520    0.000000
      3          1           0        1.890307   -0.183222    0.000000
      4          8           0       -0.952096    0.888187    0.000000
      5          1           0       -1.840211    0.443795    0.000000
      6          8           0       -0.214469   -1.232133    0.000000
      7          6           0       -6.376827    1.049963    0.000000
      8          8           0       -5.207136    1.626558    0.000000
      9          1           0       -4.499473    0.929956    0.000000
     10          8           0       -7.356210    1.944020    0.000000
     11          1           0       -8.191394    1.459460    0.000000
     12          8           0       -6.588530   -0.160780    0.000000
     13          6           0        2.819669   -2.554587    0.000000
     14          8           0        3.798537   -3.449238    0.000000
     15          1           0        4.633895   -2.964942    0.000000
     16          8           0        1.649656   -3.130780    0.000000
     17          1           0        0.942524   -2.433611    0.000000
     18          8           0        3.031853   -1.344022    0.000000
     19          6           0       -3.555724   -1.503159    0.000000
     20          8           0       -2.603144   -2.390893    0.000000
     21          1           0       -1.715005   -1.945866    0.000000
     22          8           0       -4.742468   -2.029216    0.000000
     23          1           0       -5.446188   -1.320653    0.000000
     24          8           0       -3.341972   -0.271048    0.000000
     25          8           0       -0.426653   16.709270    0.000000
     26          6           0       -0.214469   17.919835    0.000000
     27          8           0        0.955544   18.496028    0.000000
     28          1           0        1.662676   17.798859    0.000000
     29          8           0       -1.193337   18.814486    0.000000
     30          1           0       -2.028695   18.330190    0.000000
     31          8           0        2.819669   16.597381    0.000000
     32          6           0        2.605200   15.365248    0.000000
     33          8           0        3.557296   14.477061    0.000000
     34          1           0        4.445411   14.921453    0.000000
     35          8           0        1.418400   14.839728    0.000000
     36          1           0        0.714893   15.548470    0.000000
     37          8           0        5.947172   15.636296    0.000000
     38          6           0        6.160924   16.868407    0.000000
     39          8           0        7.347668   17.394464    0.000000
     40          1           0        8.051388   16.685901    0.000000
     41          8           0        5.208344   17.756141    0.000000
     42          1           0        4.320205   17.311114    0.000000
     43          8           0        9.193730   15.526028    0.000000
     44          6           0        8.982027   14.315285    0.000000
     45          8           0        9.961410   13.421228    0.000000
     46          1           0       10.796594   13.905788    0.000000
     47          8           0        7.812336   13.738690    0.000000
     48          1           0        7.104673   14.435292    0.000000
 ---------------------------------------------------------------------
                    Distance matrix (angstroms):
                    1          2          3          4          5
     1  C    0.000000
     2  O    1.297947   0.000000
     3  H    1.899166   0.998618   0.000000
     4  O    1.302061   2.169425   3.037626   0.000000
     5  H    1.892969   3.028114   3.782845   0.993092   0.000000
     6  O    1.250659   2.247865   2.351658   2.244961   2.334903
     7  C    6.462689   7.581787   8.358603   5.427143   4.576934
     8  O    5.455269   6.488043   7.324548   4.318629   3.568629
     9  H    4.594570   5.700638   6.486020   3.547623   2.703336
    10  O    7.608748   8.659975   9.488058   6.490567   5.716373
    11  H    8.320394   9.424583  10.214651   7.261803   6.431882
    12  O    6.590491   7.805560   8.478867   5.733212   4.786653
    13  C    3.804793   3.486161   2.546976   5.106751   5.541189
    14  O    5.130899   4.756035   3.782618   6.432866   6.852093
    15  H    5.501260   4.905689   3.907076   6.786008   7.316662
    16  O    3.538806   3.685480   2.957366   4.787610   4.995674
    17  H    2.609754   2.969196   2.441832   3.824124   4.002884
    18  O    3.316403   2.626672   1.628061   4.566684   5.189730
    19  C    3.860396   5.158204   5.603703   3.535168   2.594921
    20  O    3.534505   4.782169   5.006487   3.671284   2.935562
    21  H    2.593769   3.811590   4.013127   2.934942   2.392939
    22  O    5.158364   6.456229   6.884867   4.783112   3.812988
    23  H    5.604024   6.885121   7.424144   5.007578   4.014517
    24  O    3.352946   4.598293   5.233016   2.656188   1.663216
    25  O   16.714716  16.263978  17.050648  15.829806  16.326782
    26  C   17.921118  17.450666  18.225004  17.047614  17.551496
    27  O   18.520694  17.971996  18.702624  17.710877  18.267440
    28  H   17.876350  17.279893  17.983522  17.111629  17.705041
    29  O   18.852293  18.443192  19.246344  17.927922  18.382076
    30  H   18.442111  18.092697  18.923662  17.475198  17.887388
    31  O   16.835189  16.154596  16.806319  16.155649  16.812282
    32  C   15.584541  14.907360  15.564896  14.907704  15.569568
    33  O   14.907704  14.151493  14.754753  14.317546  15.035479
    34  H   15.569568  14.760130  15.319261  15.035479  15.783270
    35  O   14.907360  14.316081  15.030360  14.151493  14.760130
    36  H   15.564896  15.030360  15.775542  14.754753  15.319261
    37  O   16.729095  15.842875  16.331421  16.282095  17.072066
    38  C   17.958289  17.083087  17.578288  17.491783  18.269812
    39  O   18.882680  17.958774  18.405375  18.475477  19.280620
    40  H   18.526849  17.557918  17.959015  18.183248  19.017091
    41  O   18.504253  17.693703  18.243632  17.957697  18.692230
    42  H   17.842053  17.075550  17.662282  17.248469  17.957093
    43  O   18.043897  17.003710  17.323987  17.810227  18.687472
    44  C   16.899828  15.840555  16.139988  16.702508  17.593722
    45  O   16.714038  15.597855  15.818463  16.618716  17.541152
    46  H   17.605039  16.473607  16.667998  17.535383  18.463859
    47  O   15.804563  14.781258  15.129113  15.554764  16.429422
    48  H   16.088941  15.116315  15.520650  15.761839  16.606413
                    6          7          8          9         10
     6  O    0.000000
     7  C    6.571348   0.000000
     8  O    5.753159   1.304085   0.000000
     9  H    4.799572   1.881186   0.992996   0.000000
    10  O    7.816164   1.326095   2.172395   3.031381   0.000000
    11  H    8.418789   1.860199   2.988933   3.729699   0.965573
    12  O    6.463470   1.229112   2.258944   2.356664   2.240428
    13  C    3.309815   9.877668   9.050501   8.106286  11.125915
    14  O    4.584732  11.125684  10.337594   9.382660  12.390142
    15  H    5.148714  11.719875  10.859455   9.929181  12.956100
    16  O    2.660794   9.050030   8.345529   7.368946  10.337273
    17  H    1.667987   8.106059   7.369077   6.397571   9.382571
    18  O    3.248250   9.708472   8.758155   7.867137  10.896012
    19  C    3.352229   3.804872   3.538685   2.609734   5.130959
    20  O    2.654900   5.106875   4.787555   3.824147   6.432970
    21  H    1.661633   5.541442   4.995717   4.002951   6.852329
    22  O    4.597621   3.486040   3.685187   2.969132   4.755865
    23  H    5.232468   2.546745   2.956890   2.441620   3.782364
    24  O    3.271843   3.309897   2.660779   1.667999   4.584826
    25  O   17.942658  16.751671  15.822175  16.296460  16.310468
    26  C   19.151968  17.960157  17.041056  17.521908  17.499461
    27  O   19.762825  18.924293  17.959890  18.393588  18.521723
    28  H   19.123345  18.578459  17.570932  17.959175  18.240511
    29  O   20.070504  18.505319  17.650367  18.187549  17.960892
    30  H   19.646269  17.818880  17.003347  17.574780  17.230467
    31  O   18.085839  18.063713  16.986911  17.292717  17.840109
    32  C   16.835189  16.899828  15.804563  16.088941  16.714038
    33  O   16.155649  16.702508  15.554764  15.761839  16.618716
    34  H   16.812282  17.593722  16.429422  16.606413  17.541152
    35  O   16.154596  15.840555  14.781258  15.116315  15.597855
    36  H   16.806319  16.139988  15.129113  15.520650  15.818463
    37  O   17.958556  19.095603  17.907857  18.039092  19.090793
    38  C   19.190497  20.184607  19.014383  19.174939  20.135795
    39  O   20.103135  21.342551  20.155643  20.283855  21.328860
    40  H   19.732722  21.275713  20.064204  20.143831  21.324097
    41  O   19.747442  20.330090  19.200148  19.425813  20.196316
    42  H   19.089664  19.464109  18.351445  18.604544  19.299903
    43  O   19.218485  21.260261  20.014500  20.013723  21.409611
    44  C   18.063713  20.294412  19.035129  18.997839  20.493565
    45  O   17.840109  20.493565  19.214553  19.108873  20.775617
    46  H   18.718979  21.452241  20.171734  20.058462  21.739554
    47  O   16.986911  19.035129  17.782306  17.766381  19.214553
    48  H   17.292717  18.997839  17.766381  17.805906  19.108873
                   11         12         13         14         15
    11  H    0.000000
    12  O    2.279112   0.000000
    13  C   11.719901   9.707962   0.000000
    14  O   12.955839  10.895188   1.326116   0.000000
    15  H   13.566996  11.567461   1.860056   0.965591   0.000000
    16  O   10.858940   8.757203   1.304197   2.172350   2.988843
    17  H    9.928971   7.866545   1.881039   3.031222   3.729414
    18  O   11.568093   9.692875   1.229020   2.240477   2.279017
    19  C    5.501504   3.316609   6.461512   7.607390   8.319055
    20  O    6.786292   4.566914   5.425283   6.488576   7.259770
    21  H    7.317094   5.190162   4.575348   5.714829   6.430167
    22  O    4.905706   2.626594   7.580365   8.658246   9.422938
    23  H    3.907069   1.627959   8.357451   9.486612  10.213313
    24  O    5.148937   3.248430   6.571177   7.815866   8.418522
    25  O   17.112800  17.960159  19.535475  20.596545  20.314619
    26  C   18.291399  19.171262  20.698018  21.742619  21.440162
    27  O   19.336782  20.124352  21.132992  22.128654  21.773918
    28  H   19.080845  19.764388  20.386304  21.355176  20.975309
    29  O   18.712823  19.727362  21.742619  22.816490  22.545512
    30  H   17.961080  19.044896  21.440162  22.545512  22.313062
    31  O   18.718979  19.218485  19.151968  20.070504  19.646269
    32  C   17.605039  18.043897  17.921118  18.852293  18.442111
    33  O   17.535383  17.810227  17.047614  17.927922  17.475198
    34  H   18.463859  18.687472  17.551496  18.382076  17.887388
    35  O   16.473607  17.003710  17.450666  18.443192  18.092697
    36  H   16.667998  17.323987  18.225004  19.246344  18.923662
    37  O   20.022031  20.166592  18.457776  19.206099  18.647540
    38  C   21.057651  21.273030  19.708290  20.454524  19.892047
    39  O   22.257286  22.414375  20.456476  21.143705  20.539474
    40  H   22.263703  22.319002  19.939089  20.579372  19.945799
    41  O   21.098218  21.451860  20.450708  21.252192  20.729044
    42  H   20.194431  20.597757  19.922291  20.766905  20.278482
    43  O   22.363159  22.252094  19.171262  19.727362  19.044896
    44  C   21.452241  21.260261  17.960157  18.505319  17.818880
    45  O   21.739554  21.409611  17.499461  17.960892  17.230467
    46  H   22.703629  22.363159  18.291399  18.712823  17.961080
    47  O   20.171734  20.014500  17.041056  17.650367  17.003347
    48  H   20.058462  20.013723  17.521908  18.187549  17.574780
                   16         17         18         19         20
    16  O    0.000000
    17  H    0.993016   0.000000
    18  O    2.258976   2.356374   0.000000
    19  C    5.453910   4.593471   6.589499   0.000000
    20  O    4.316682   3.545925   5.731416   1.302106   0.000000
    21  H    3.567207   2.701917   4.784859   1.893208   0.993398
    22  O    6.486347   5.699357   7.804458   1.298113   2.169681
    23  H    7.323084   6.484930   8.478073   1.899253   3.037814
    24  O    5.752775   4.799332   6.463507   1.250515   2.244907
    25  O   19.948400  19.191783  18.381584  18.479276  19.223770
    26  C   21.132992  20.386304  19.535475  19.708290  20.450708
    27  O   21.637944  20.929643  19.948400  20.501683  21.187915
    28  H   20.929643  20.245282  19.191783  19.994989  20.635487
    29  O   22.128654  21.355176  20.596545  20.454524  21.252192
    30  H   21.773918  20.975309  20.314619  19.892047  20.729044
    31  O   19.762825  19.123345  17.942658  19.190497  19.747442
    32  C   18.520694  17.876350  16.714716  17.958289  18.504253
    33  O   17.710877  17.111629  15.829806  17.491783  17.957697
    34  H   18.267440  17.705041  16.326782  18.269812  18.692230
    35  O   17.971996  17.279893  16.263978  17.083087  17.693703
    36  H   18.702624  17.983522  17.050648  17.578288  18.243632
    37  O   19.252838  18.750148  17.228763  19.597601  19.952129
    38  C   20.501683  19.994989  18.479276  20.782870  21.159620
    39  O   21.301478  20.836949  19.229070  21.817518  22.146761
    40  H   20.825057  20.398326  18.715605  21.577001  21.850472
    41  O   21.187915  20.635487  19.223770  21.159620  21.608385
    42  H   20.615598  20.031547  18.699571  20.396253  20.883052
    43  O   20.124352  19.764388  17.960159  21.273030  21.451860
    44  C   18.924293  18.578459  16.751671  20.184607  20.330090
    45  O   18.521723  18.240511  16.310468  20.135795  20.196316
    46  H   19.336782  19.080845  17.112800  21.057651  21.098218
    47  O   17.959890  17.570932  15.822175  19.014383  19.200148
    48  H   18.393588  17.959175  16.296460  19.174939  19.425813
                   21         22         23         24         25
    21  H    0.000000
    22  O    3.028610   0.000000
    23  H    3.783202   0.998641   0.000000
    24  O    2.334960   2.247786   2.351467   0.000000
    25  O   18.699571  19.229070  18.715605  17.228763   0.000000
    26  C   19.922291  20.456476  19.939089  18.457776   1.229020
    27  O   20.615598  21.301478  20.825057  19.252838   2.258976
    28  H   20.031547  20.836949  20.398326  18.750148   2.356374
    29  O   20.766905  21.143705  20.579372  19.206099   2.240477
    30  H   20.278482  20.539474  19.945799  18.647540   2.279017
    31  O   19.089664  20.103135  19.732722  17.958556   3.248250
    32  C   17.842053  18.882680  18.526849  16.729095   3.316403
    33  O   17.248469  18.475477  18.183248  16.282095   4.566684
    34  H   17.957093  19.280620  19.017091  17.072066   5.189730
    35  O   17.075550  17.958774  17.557918  15.842875   2.626672
    36  H   17.662282  18.405375  17.959015  16.331421   1.628061
    37  O   19.179191  20.647971  20.429067  18.420961   6.463507
    38  C   20.396253  21.817518  21.577001  19.597601   6.589499
    39  O   21.358380  22.879046  22.670209  20.647971   7.804458
    40  H   21.036282  22.670209  22.503790  20.429067   8.478073
    41  O   20.883052  22.146761  21.850472  19.952129   5.731416
    42  H   20.180561  21.358380  21.036282  19.179191   4.784859
    43  O   20.597757  22.414375  22.319002  20.166592   9.692875
    44  C   19.464109  21.342551  21.275713  19.095603   9.708472
    45  O   19.299903  21.328860  21.324097  19.090793  10.896012
    46  H   20.194431  22.257286  22.263703  20.022031  11.568093
    47  O   18.351445  20.155643  20.064204  17.907857   8.758155
    48  H   18.604544  20.283855  20.143831  18.039092   7.867137
                   26         27         28         29         30
    26  C    0.000000
    27  O    1.304197   0.000000
    28  H    1.881039   0.993016   0.000000
    29  O    1.326116   2.172350   3.031222   0.000000
    30  H    1.860056   2.988843   3.729414   0.965591   0.000000
    31  O    3.309815   2.660794   1.667987   4.584732   5.148714
    32  C    3.804793   3.538806   2.609754   5.130899   5.501260
    33  O    5.106751   4.787610   3.824124   6.432866   6.786008
    34  H    5.541189   4.995674   4.002884   6.852093   7.316662
    35  O    3.486161   3.685480   2.969196   4.756035   4.905689
    36  H    2.546976   2.957366   2.441832   3.782618   3.907076
    37  O    6.571177   5.752775   4.799332   7.815866   8.418522
    38  C    6.461512   5.453910   4.593471   7.607390   8.319055
    39  O    7.580365   6.486347   5.699357   8.658246   9.422938
    40  H    8.357451   7.323084   6.484930   9.486612  10.213313
    41  O    5.425283   4.316682   3.545925   6.488576   7.259770
    42  H    4.575348   3.567207   2.701917   5.714829   6.430167
    43  O    9.707962   8.757203   7.866545  10.895188  11.567461
    44  C    9.877668   9.050030   8.106059  11.125684  11.719875
    45  O   11.125915  10.337273   9.382571  12.390142  12.956100
    46  H   11.719901  10.858940   9.928971  12.955839  13.566996
    47  O    9.050501   8.345529   7.369077  10.337594  10.859455
    48  H    8.106286   7.368946   6.397571   9.382660   9.929181
                   31         32         33         34         35
    31  O    0.000000
    32  C    1.250659   0.000000
    33  O    2.244961   1.302061   0.000000
    34  H    2.334903   1.892969   0.993092   0.000000
    35  O    2.247865   1.297947   2.169425   3.028114   0.000000
    36  H    2.351658   1.899166   3.037626   3.782845   0.998618
    37  O    3.271843   3.352946   2.656188   1.663216   4.598293
    38  C    3.352229   3.860396   3.535168   2.594921   5.158204
    39  O    4.597621   5.158364   4.783112   3.812988   6.456229
    40  H    5.232468   5.604024   5.007578   4.014517   6.885121
    41  O    2.654900   3.534505   3.671284   2.935562   4.782169
    42  H    1.661633   2.593769   2.934942   2.392939   3.811590
    43  O    6.463470   6.590491   5.733212   4.786653   7.805560
    44  C    6.571348   6.462689   5.427143   4.576934   7.581787
    45  O    7.816164   7.608748   6.490567   5.716373   8.659975
    46  H    8.418789   8.320394   7.261803   6.431882   9.424583
    47  O    5.753159   5.455269   4.318629   3.568629   6.488043
    48  H    4.799572   4.594570   3.547623   2.703336   5.700638
                   36         37         38         39         40
    36  H    0.000000
    37  O    5.233016   0.000000
    38  C    5.603703   1.250515   0.000000
    39  O    6.884867   2.247786   1.298113   0.000000
    40  H    7.424144   2.351467   1.899253   0.998641   0.000000
    41  O    5.006487   2.244907   1.302106   2.169681   3.037814
    42  H    4.013127   2.334960   1.893208   3.028610   3.783202
    43  O    8.478867   3.248430   3.316609   2.626594   1.627959
    44  C    8.358603   3.309897   3.804872   3.486040   2.546745
    45  O    9.488058   4.584826   5.130959   4.755865   3.782364
    46  H   10.214651   5.148937   5.501504   4.905706   3.907069
    47  O    7.324548   2.660779   3.538685   3.685187   2.956890
    48  H    6.486020   1.667999   2.609734   2.969132   2.441620
                   41         42         43         44         45
    41  O    0.000000
    42  H    0.993398   0.000000
    43  O    4.566914   5.190162   0.000000
    44  C    5.106875   5.541442   1.229112   0.000000
    45  O    6.432970   6.852329   2.240428   1.326095   0.000000
    46  H    6.786292   7.317094   2.279112   1.860199   0.965573
    47  O    4.787555   4.995717   2.258944   1.304085   2.172395
    48  H    3.824147   4.002951   2.356664   1.881186   3.031381
                   46         47         48
    46  H    0.000000
    47  O    2.988933   0.000000
    48  H    3.729699   0.992996   0.000000
 Stoichiometry    C8H16O24
 Framework group  C2H[SGH(C8H16O24)]
 Deg. of freedom    47
 Full point group                 C2H     NOp   4
 Largest Abelian subgroup         C2H     NOp   4
 Largest concise Abelian subgroup C2      NOp   2
                         Standard orientation:                         
 ---------------------------------------------------------------------
 Center     Atomic      Atomic             Coordinates (Angstroms)
 Number     Number       Type             X           Y           Z
 ---------------------------------------------------------------------
      1          6           0        1.302600    7.682624    0.000000
      2          8           0        0.115800    7.157104    0.000000
      3          1           0       -0.587707    7.865846    0.000000
      4          8           0        2.254696    6.794437    0.000000
      5          1           0        3.142811    7.238829    0.000000
      6          8           0        1.517069    8.914757    0.000000
      7          6           0        7.679427    6.632661    0.000000
      8          8           0        6.509736    6.056066    0.000000
      9          1           0        5.802073    6.752668    0.000000
     10          8           0        8.658810    5.738604    0.000000
     11          1           0        9.493994    6.223164    0.000000
     12          8           0        7.891130    7.843404    0.000000
     13          6           0       -1.517069   10.237211    0.000000
     14          8           0       -2.495937   11.131862    0.000000
     15          1           0       -3.331295   10.647566    0.000000
     16          8           0       -0.347056   10.813404    0.000000
     17          1           0        0.360076   10.116235    0.000000
     18          8           0       -1.729253    9.026646    0.000000
     19          6           0        4.858324    9.185783    0.000000
     20          8           0        3.905744   10.073517    0.000000
     21          1           0        3.017605    9.628490    0.000000
     22          8           0        6.045068    9.711840    0.000000
     23          1           0        6.748788    9.003277    0.000000
     24          8           0        4.644572    7.953672    0.000000
     25          8           0        1.729253   -9.026646    0.000000
     26          6           0        1.517069  -10.237211    0.000000
     27          8           0        0.347056  -10.813404    0.000000
     28          1           0       -0.360076  -10.116235    0.000000
     29          8           0        2.495937  -11.131862    0.000000
     30          1           0        3.331295  -10.647566    0.000000
     31          8           0       -1.517069   -8.914757    0.000000
     32          6           0       -1.302600   -7.682624    0.000000
     33          8           0       -2.254696   -6.794437    0.000000
     34          1           0       -3.142811   -7.238829    0.000000
     35          8           0       -0.115800   -7.157104    0.000000
     36          1           0        0.587707   -7.865846    0.000000
     37          8           0       -4.644572   -7.953672    0.000000
     38          6           0       -4.858324   -9.185783    0.000000
     39          8           0       -6.045068   -9.711840    0.000000
     40          1           0       -6.748788   -9.003277    0.000000
     41          8           0       -3.905744  -10.073517    0.000000
     42          1           0       -3.017605   -9.628490    0.000000
     43          8           0       -7.891130   -7.843404    0.000000
     44          6           0       -7.679427   -6.632661    0.000000
     45          8           0       -8.658810   -5.738604    0.000000
     46          1           0       -9.493994   -6.223164    0.000000
     47          8           0       -6.509736   -6.056066    0.000000
     48          1           0       -5.802073   -6.752668    0.000000
 ---------------------------------------------------------------------
 Rotational constants (GHZ):      0.0726356      0.0123866      0.0105820
 Standard basis: 6-31+G(d,p) (6D, 7F)
 There are   256 symmetry adapted cartesian basis functions of AG  symmetry.
 There are    88 symmetry adapted cartesian basis functions of BG  symmetry.
 There are    88 symmetry adapted cartesian basis functions of AU  symmetry.
 There are   256 symmetry adapted cartesian basis functions of BU  symmetry.
 There are   256 symmetry adapted basis functions of AG  symmetry.
 There are    88 symmetry adapted basis functions of BG  symmetry.
 There are    88 symmetry adapted basis functions of AU  symmetry.
 There are   256 symmetry adapted basis functions of BU  symmetry.
   688 basis functions,  1136 primitive gaussians,   688 cartesian basis functions
   128 alpha electrons      128 beta electrons
       nuclear repulsion energy      2768.2671956587 Hartrees.
 NAtoms=   48 NActive=   48 NUniq=   24 SFac= 4.00D+00 NAtFMM=   60 NAOKFM=F Big=F
 Integral buffers will be    131072 words long.
 Raffenetti 2 integral format.
 Two-electron integral symmetry is turned on.
 Nuclear repulsion after empirical dispersion term =     2768.2463068060 Hartrees.
 One-electron integrals computed using PRISM.
 NBasis=   688 RedAO= T EigKep=  1.38D-03  NBF=   256    88    88   256
 NBsUse=   688 1.00D-06 EigRej= -1.00D+00 NBFU=   256    88    88   256
 ExpMin= 4.38D-02 ExpMax= 5.48D+03 ExpMxC= 8.25D+02 IAcc=2 IRadAn=         4 AccDes= 0.00D+00
 Harris functional with IExCor= 4639 and IRadAn=       4 diagonalized for initial guess.
 HarFok:  IExCor= 4639 AccDes= 0.00D+00 IRadAn=         4 IDoV= 1 UseB2=F ITyADJ=14
 ICtDFT=  3500011 ScaDFX=  1.000000  1.000000  1.000000  1.000000
 FoFCou: FMM=F IPFlag=           0 FMFlag=      100000 FMFlg1=           0
         NFxFlg=           0 DoJE=T BraDBF=F KetDBF=T FulRan=T
         wScrn=  0.000000 ICntrl=     500 IOpCl=  0 I1Cent=   200000004 NGrid=           0
         NMat0=    1 NMatS0=      1 NMatT0=    0 NMatD0=    1 NMtDS0=    0 NMtDT0=    0
 Petite list used in FoFCou.
 Initial guess orbital symmetries:
       Occupied  (AG) (BU) (AG) (BU) (BU) (AG) (AG) (BU) (BU) (AG)
                 (BU) (AG) (BU) (AG) (BU) (AG) (BU) (AG) (BU) (AG)
                 (BU) (AG) (BU) (AG) (BU) (AG) (AG) (BU) (BU) (AG)
                 (AG) (BU) (BU) (AG) (AG) (BU) (BU) (AG) (BU) (AG)
                 (BU) (AG) (BU) (AG) (BU) (AG) (AG) (BU) (BU) (AG)
                 (BU) (AG) (BU) (AG) (BU) (AG) (AG) (BU) (AG) (BU)
                 (AG) (BU) (AG) (BU) (AG) (BU) (AG) (BU) (AG) (BU)
                 (AG) (BU) (AG) (BU) (BU) (AG) (AG) (BU) (AG) (BU)
                 (AU) (BG) (AU) (BG) (AG) (BU) (AU) (BG) (AU) (BG)
                 (AG) (BU) (AG) (BU) (AG) (BU) (AG) (BU) (AG) (BU)
                 (AG) (BU) (AG) (BU) (AU) (BG) (AU) (BG) (AU) (BG)
                 (AU) (BG) (AU) (BG) (BG) (AU) (AU) (BG) (AU) (BG)
                 (AG) (BU) (AG) (BU) (AG) (BU) (BU) (AG)
       Virtual   (AG) (BU) (BU) (AG) (AG) (BU) (AG) (BU) (AU) (BG)
                 (AG) (BU) (AG) (BU) (AU) (BG) (AG) (BU) (AU) (BG)
                 (AG) (BU) (BU) (AG) (AU) (BG) (AU) (BG) (AU) (BG)
                 (AU) (BG) (AG) (BU) (AG) (BU) (AU) (BG) (AG) (BU)
                 (AG) (BU) (AG) (BU) (AG) (BU) (BG) (AU) (AU) (BG)
                 (AG) (BU) (BU) (AG) (AG) (BU) (AG) (BU) (AU) (BG)
                 (BU) (AG) (AU) (BG) (BU) (AG) (AG) (BU) (BU) (AG)
                 (AU) (BG) (AG) (BU) (AG) (BU) (AU) (BG) (AG) (BU)
                 (AG) (BU) (AU) (BG) (BU) (AG) (AU) (BG) (AG) (BU)
                 (AG) (BU) (AU) (BG) (AG) (BU) (AG) (BU) (AG) (BU)
                 (AU) (BG) (AG) (BU) (AG) (BU) (AG) (BU) (AG) (BU)
                 (AU) (BG) (AG) (BU) (AG) (BU) (BU) (AG) (AU) (BG)
                 (AG) (BU) (AG) (BU) (AG) (BU) (AG) (BU) (AG) (BU)
                 (AG) (BU) (BU) (AG) (BU) (AG) (BU) (AG) (AG) (BU)
                 (AG) (BU) (BU) (AG) (AG) (BU) (AG) (BU) (AG) (BU)
                 (AG) (BU) (AG) (BU) (AG) (BU) (BU) (AG) (AG) (BU)
                 (AG) (BU) (AG) (BU) (AG) (BU) (BU) (AG) (AG) (BU)
                 (AG) (BU) (BU) (AG) (AG) (BU) (AU) (BG) (BG) (AU)
                 (AU) (BG) (AU) (BG) (AG) (BU) (AG) (BU) (AG) (BU)
                 (AG) (BU) (BU) (AG) (AG) (BU) (AG) (BU) (AG) (BU)
                 (AG) (BU) (AG) (BU) (AG) (BU) (AG) (BU) (AU) (BG)
                 (AU) (BG) (AG) (BU) (AG) (BU) (AU) (BG) (BU) (AG)
                 (AU) (BG) (AG) (BU) (AU) (BG) (AU) (BG) (AG) (BU)
                 (AU) (BG) (AU) (BG) (AG) (BU) (AG) (BU) (AG) (BU)
                 (BU) (AG) (BU) (AG) (AU) (BG) (AG) (BU) (AU) (BG)
                 (AU) (BG) (AU) (BG) (AG) (BU) (AG) (BU) (AG) (BU)
                 (AG) (BU) (AG) (BU) (AG) (BU) (AG) (BU) (AG) (BU)
                 (AG) (BU) (AU) (BG) (AU) (BG) (AG) (BU) (AG) (BU)
                 (AU) (BG) (AU) (BG) (AG) (BU) (AU) (BG) (BU) (AG)
                 (AU) (BG) (AU) (BG) (AU) (BG) (AG) (BU) (BU) (AG)
                 (AG) (BU) (AG) (BU) (AG) (BU) (AG) (BU) (AG) (BU)
                 (AG) (BU) (AG) (BU) (AU) (BG) (AU) (BG) (AU) (BG)
                 (AU) (BG) (AG) (BU) (AU) (BG) (AU) (BG) (AG) (BU)
                 (AU) (BG) (AU) (BG) (AG) (BU) (AG) (BU) (AG) (BU)
                 (AG) (BU) (AG) (BU) (BU) (AG) (AG) (BU) (AU) (BG)
                 (AU) (BG) (AG) (BU) (AU) (BG) (AG) (BU) (AU) (BG)
                 (AG) (BU) (AG) (BU) (AG) (BU) (AG) (BU) (AG) (BU)
                 (AG) (BU) (AG) (BU) (AG) (BU) (AG) (BU) (AG) (BU)
                 (AG) (BU) (AG) (BU) (BU) (AG) (BU) (AG) (AG) (BU)
                 (AG) (BU) (AU) (BG) (AU) (BG) (AG) (BU) (AU) (BG)
                 (AU) (BG) (BU) (AG) (AG) (BU) (AG) (BU) (AG) (BU)
                 (AG) (BU) (AG) (BU) (AG) (BU) (AU) (BG) (AU) (BG)
                 (AG) (BU) (AU) (BG) (AU) (BG) (BU) (AG) (AU) (BG)
                 (AU) (BG) (AU) (BG) (BU) (AG) (AU) (BG) (AG) (BU)
                 (AG) (BU) (AG) (BU) (AU) (BG) (BU) (AG) (AU) (BG)
                 (AU) (BG) (AG) (BU) (BG) (AU) (AG) (BU) (BU) (AG)
                 (AG) (BU) (AG) (BU) (AU) (BG) (AU) (BG) (AU) (BG)
                 (AU) (BG) (BU) (AG) (AG) (BU) (AG) (BU) (AG) (BU)
                 (BU) (AG) (BU) (AG) (BU) (AG) (AG) (BU) (AG) (BU)
                 (AG) (BU) (BU) (AG) (AG) (BU) (AG) (BU) (AG) (BU)
                 (AG) (BU) (BU) (AG) (AG) (BU) (AG) (BU) (AG) (BU)
                 (AG) (BU) (AG) (BU) (AG) (BU) (AG) (BU) (AG) (BU)
                 (AG) (BU) (AG) (BU) (AG) (BU) (BU) (AG) (AG) (BU)
                 (AG) (BU) (AG) (BU) (BU) (AG) (AG) (BU) (AG) (BU)
                 (AG) (BU) (AG) (BU) (AG) (BU) (AG) (BU) (BU) (AG)
                 (AG) (BU) (AG) (BU) (BU) (AG) (AG) (BU) (AG) (BU)
 The electronic state of the initial guess is 1-AG.
 Requested convergence on RMS density matrix=1.00D-08 within 128 cycles.
 Requested convergence on MAX density matrix=1.00D-06.
 Requested convergence on             energy=1.00D-06.
 No special actions if energy rises.
 SCF Done:  E(RwB97XD) =  -2119.70028785     A.U. after   12 cycles
            NFock= 12  Conv=0.93D-08     -V/T= 2.0085

 **********************************************************************

            Population analysis using the SCF density.

 **********************************************************************

 Orbital symmetries:
       Occupied  (BU) (AG) (AG) (BU) (AG) (BU) (BU) (AG) (BU) (AG)
                 (BU) (AG) (BU) (AG) (BU) (AG) (BU) (AG) (BU) (AG)
                 (BU) (AG) (BU) (AG) (BU) (AG) (BU) (AG) (BU) (AG)
                 (AG) (BU) (BU) (AG) (AG) (BU) (BU) (AG) (BU) (AG)
                 (AG) (BU) (BU) (AG) (BU) (AG) (AG) (BU) (BU) (AG)
                 (BU) (AG) (AG) (BU) (BU) (AG) (BU) (AG) (AG) (BU)
                 (AG) (BU) (AG) (BU) (AG) (BU) (AG) (BU) (AG) (BU)
                 (AG) (BU) (BU) (AG) (BU) (AG) (AG) (BU) (AG) (BU)
                 (AU) (BG) (AU) (BG) (AU) (BG) (AU) (BG) (AG) (BU)
                 (AG) (BU) (AG) (BU) (AG) (BU) (AG) (BU) (AG) (BU)
                 (AG) (BU) (AG) (BU) (AU) (BG) (AU) (BG) (AU) (BG)
                 (AU) (BG) (AU) (BG) (AU) (BG) (AU) (BG) (AU) (BG)
                 (AG) (BU) (AG) (BU) (AG) (BU) (AG) (BU)
       Virtual   (AG) (BU) (BU) (AG) (AU) (BG) (AG) (BU) (BG) (AU)
                 (AU) (BG) (AU) (BG) (AU) (BG) (AG) (BU) (AG) (BU)
                 (AU) (BG) (BU) (AG) (AU) (BG) (AG) (BU) (AG) (BU)
                 (AG) (BU) (AU) (BG) (AG) (BU) (AG) (BU) (AG) (BU)
                 (AG) (BU) (AG) (BU) (AG) (BU) (AU) (BG) (AG) (BU)
                 (AG) (BU) (AU) (BG) (AG) (BU) (BU) (AG) (BU) (AG)
                 (AU) (BG) (BU) (AG) (AU) (BG) (AG) (BU) (BU) (AG)
                 (AU) (BG) (BU) (AG) (AG) (BU) (AG) (BU) (BU) (AG)
                 (AG) (BU) (AU) (BG) (BG) (AU) (AG) (BU) (AG) (BU)
                 (AG) (BU) (AU) (BG) (AG) (BU) (AU) (BG) (AG) (BU)
                 (AG) (BU) (AU) (BG) (AG) (BU) (AG) (BU) (BU) (AG)
                 (AU) (BG) (AG) (BU) (BU) (AG) (AG) (BU) (AG) (BU)
                 (AU) (BG) (AG) (BU) (AG) (BU) (AG) (BU) (AG) (BU)
                 (AG) (BU) (AG) (BU) (AG) (BU) (AG) (BU) (AG) (BU)
                 (AG) (BU) (AG) (BU) (AG) (BU) (AG) (BU) (BU) (AG)
                 (BU) (AG) (BU) (AG) (AG) (BU) (AG) (BU) (AG) (BU)
                 (AG) (BU) (AG) (BU) (AG) (BU) (AG) (BU) (AG) (BU)
                 (AG) (BU) (BU) (AG) (AG) (BU) (AU) (BG) (BG) (AU)
                 (AU) (BG) (AU) (BG) (AG) (BU) (AG) (BU) (AG) (BU)
                 (AG) (BU) (BU) (AG) (AG) (BU) (AG) (BU) (AG) (BU)
                 (AG) (BU) (AG) (BU) (AG) (BU) (AG) (BU) (AG) (BU)
                 (AU) (BG) (AU) (BG) (AG) (BU) (BU) (AG) (AU) (BG)
                 (AU) (BG) (AG) (BU) (AU) (BG) (BU) (AG) (AU) (BG)
                 (AU) (BG) (AU) (BG) (AG) (BU) (AG) (BU) (AG) (BU)
                 (BU) (AG) (AG) (BU) (AU) (BG) (AG) (BU) (AU) (BG)
                 (AU) (BG) (AU) (BG) (AG) (BU) (AG) (BU) (AG) (BU)
                 (AG) (BU) (AG) (BU) (AU) (BG) (AU) (BG) (AG) (BU)
                 (AG) (BU) (AU) (BG) (AG) (BU) (AG) (BU) (AU) (BG)
                 (AG) (BU) (AU) (BG) (AG) (BU) (AU) (BG) (AU) (BG)
                 (AU) (BG) (AG) (BU) (BU) (AG) (AG) (BU) (BU) (AG)
                 (AG) (BU) (AG) (BU) (AG) (BU) (AG) (BU) (AG) (BU)
                 (AG) (BU) (AU) (BG) (AU) (BG) (AG) (BU) (AU) (BG)
                 (AG) (BU) (AU) (BG) (AU) (BG) (AU) (BG) (AG) (BU)
                 (AU) (BG) (AU) (BG) (AG) (BU) (AG) (BU) (AG) (BU)
                 (AG) (BU) (AG) (BU) (BU) (AG) (BU) (AG) (AU) (BG)
                 (AG) (BU) (BU) (AG) (AG) (BU) (AU) (BG) (AU) (BG)
                 (AU) (BG) (AG) (BU) (AG) (BU) (AG) (BU) (AG) (BU)
                 (AG) (BU) (AG) (BU) (AG) (BU) (BU) (AG) (AG) (BU)
                 (BU) (AG) (AG) (BU) (AG) (BU) (BU) (AG) (AG) (BU)
                 (AG) (BU) (AG) (BU) (AU) (BG) (AU) (BG) (AU) (BG)
                 (AU) (BG) (AG) (BU) (AG) (BU) (AG) (BU) (AG) (BU)
                 (AG) (BU) (AG) (BU) (AG) (BU) (AU) (BG) (AU) (BG)
                 (AG) (BU) (AU) (BG) (AU) (BG) (BU) (AG) (AU) (BG)
                 (BG) (AU) (AU) (BG) (BU) (AG) (AU) (BG) (AG) (BU)
                 (AG) (BU) (BU) (AG) (AU) (BG) (BU) (AG) (AU) (BG)
                 (AU) (BG) (BG) (AU) (AG) (BU) (AG) (BU) (BU) (AG)
                 (AG) (BU) (AG) (BU) (AU) (BG) (AU) (BG) (AU) (BG)
                 (AU) (BG) (BU) (AG) (AG) (BU) (AG) (BU) (AG) (BU)
                 (AG) (BU) (BU) (AG) (BU) (AG) (AG) (BU) (AG) (BU)
                 (AG) (BU) (AG) (BU) (AG) (BU) (AG) (BU) (AG) (BU)
                 (AG) (BU) (BU) (AG) (AG) (BU) (AG) (BU) (AG) (BU)
                 (AG) (BU) (AG) (BU) (AG) (BU) (AG) (BU) (AG) (BU)
                 (AG) (BU) (AG) (BU) (AG) (BU) (BU) (AG) (AG) (BU)
                 (AG) (BU) (AG) (BU) (AG) (BU) (AG) (BU) (AG) (BU)
                 (AG) (BU) (BU) (AG) (AG) (BU) (BU) (AG) (AG) (BU)
                 (AG) (BU) (BU) (AG) (BU) (AG) (AG) (BU) (AG) (BU)
 The electronic state is 1-AG.
 Alpha  occ. eigenvalues --  -19.36376 -19.36376 -19.36364 -19.36364 -19.34819
 Alpha  occ. eigenvalues --  -19.34819 -19.34811 -19.34811 -19.34754 -19.34754
 Alpha  occ. eigenvalues --  -19.34746 -19.34746 -19.34526 -19.34526 -19.34510
 Alpha  occ. eigenvalues --  -19.34510 -19.31814 -19.31814 -19.31809 -19.31809
 Alpha  occ. eigenvalues --  -19.30750 -19.30750 -19.30738 -19.30738 -10.52548
 Alpha  occ. eigenvalues --  -10.52548 -10.52539 -10.52539 -10.52179 -10.52179
 Alpha  occ. eigenvalues --  -10.52166 -10.52166  -1.29416  -1.29416  -1.29219
 Alpha  occ. eigenvalues --   -1.29219  -1.28867  -1.28867  -1.28498  -1.28498
 Alpha  occ. eigenvalues --   -1.19560  -1.19560  -1.19517  -1.19517  -1.19023
 Alpha  occ. eigenvalues --   -1.19023  -1.18778  -1.18778  -1.16310  -1.16310
 Alpha  occ. eigenvalues --   -1.15853  -1.15853  -1.15417  -1.15417  -1.15199
 Alpha  occ. eigenvalues --   -1.15199  -0.80826  -0.80826  -0.80259  -0.80259
 Alpha  occ. eigenvalues --   -0.79371  -0.79371  -0.78659  -0.78659  -0.69236
 Alpha  occ. eigenvalues --   -0.69236  -0.69040  -0.69040  -0.68250  -0.68250
 Alpha  occ. eigenvalues --   -0.66492  -0.66492  -0.64925  -0.64925  -0.63356
 Alpha  occ. eigenvalues --   -0.63356  -0.62663  -0.62663  -0.62652  -0.62652
 Alpha  occ. eigenvalues --   -0.61507  -0.61507  -0.61212  -0.61212  -0.60886
 Alpha  occ. eigenvalues --   -0.60886  -0.60663  -0.60663  -0.59725  -0.59725
 Alpha  occ. eigenvalues --   -0.57843  -0.57843  -0.56295  -0.56295  -0.54899
 Alpha  occ. eigenvalues --   -0.54899  -0.52991  -0.52991  -0.51571  -0.51571
 Alpha  occ. eigenvalues --   -0.50103  -0.50103  -0.49660  -0.49660  -0.46689
 Alpha  occ. eigenvalues --   -0.46689  -0.46627  -0.46627  -0.46022  -0.46022
 Alpha  occ. eigenvalues --   -0.45878  -0.45878  -0.44789  -0.44789  -0.44188
 Alpha  occ. eigenvalues --   -0.44188  -0.43596  -0.43596  -0.43572  -0.43572
 Alpha  occ. eigenvalues --   -0.43325  -0.43325  -0.42886  -0.42886  -0.41965
 Alpha  occ. eigenvalues --   -0.41965  -0.41684  -0.41684
 Alpha virt. eigenvalues --    0.05001   0.05001   0.05366   0.05366   0.06464
 Alpha virt. eigenvalues --    0.06464   0.06784   0.06784   0.07368   0.07368
 Alpha virt. eigenvalues --    0.08195   0.08195   0.08579   0.08579   0.08983
 Alpha virt. eigenvalues --    0.08983   0.09138   0.09138   0.09455   0.09455
 Alpha virt. eigenvalues --    0.10136   0.10136   0.10677   0.10677   0.12162
 Alpha virt. eigenvalues --    0.12162   0.12732   0.12732   0.12986   0.12986
 Alpha virt. eigenvalues --    0.13650   0.13650   0.14253   0.14253   0.15988
 Alpha virt. eigenvalues --    0.15988   0.16201   0.16201   0.16736   0.16736
 Alpha virt. eigenvalues --    0.20146   0.20146   0.20216   0.20216   0.21641
 Alpha virt. eigenvalues --    0.21641   0.22618   0.22618   0.22642   0.22642
 Alpha virt. eigenvalues --    0.22652   0.22652   0.23552   0.23552   0.24101
 Alpha virt. eigenvalues --    0.24101   0.24363   0.24363   0.24756   0.24756
 Alpha virt. eigenvalues --    0.25692   0.25692   0.26043   0.26043   0.26966
 Alpha virt. eigenvalues --    0.26966   0.27248   0.27248   0.27693   0.27693
 Alpha virt. eigenvalues --    0.28864   0.28864   0.29044   0.29044   0.29337
 Alpha virt. eigenvalues --    0.29337   0.29532   0.29532   0.29909   0.29909
 Alpha virt. eigenvalues --    0.30028   0.30028   0.30961   0.30961   0.31002
 Alpha virt. eigenvalues --    0.31002   0.31313   0.31313   0.31928   0.31928
 Alpha virt. eigenvalues --    0.32256   0.32256   0.32532   0.32532   0.33224
 Alpha virt. eigenvalues --    0.33224   0.33313   0.33313   0.33936   0.33936
 Alpha virt. eigenvalues --    0.34858   0.34858   0.35400   0.35400   0.35519
 Alpha virt. eigenvalues --    0.35519   0.35565   0.35565   0.36759   0.36759
 Alpha virt. eigenvalues --    0.37103   0.37103   0.37110   0.37110   0.37395
 Alpha virt. eigenvalues --    0.37395   0.37599   0.37599   0.37689   0.37689
 Alpha virt. eigenvalues --    0.38508   0.38508   0.39502   0.39502   0.39641
 Alpha virt. eigenvalues --    0.39641   0.40258   0.40258   0.40533   0.40533
 Alpha virt. eigenvalues --    0.41054   0.41054   0.41328   0.41328   0.41837
 Alpha virt. eigenvalues --    0.41837   0.42053   0.42053   0.43117   0.43117
 Alpha virt. eigenvalues --    0.44657   0.44657   0.45810   0.45810   0.46610
 Alpha virt. eigenvalues --    0.46610   0.46623   0.46623   0.47901   0.47901
 Alpha virt. eigenvalues --    0.48284   0.48284   0.50578   0.50578   0.50711
 Alpha virt. eigenvalues --    0.50711   0.51826   0.51826   0.53809   0.53809
 Alpha virt. eigenvalues --    0.54962   0.54962   0.56551   0.56551   0.56997
 Alpha virt. eigenvalues --    0.56997   0.57065   0.57065   0.57890   0.57890
 Alpha virt. eigenvalues --    0.59727   0.59727   0.60565   0.60565   0.65577
 Alpha virt. eigenvalues --    0.65577   0.74945   0.74945   0.77347   0.77347
 Alpha virt. eigenvalues --    0.80427   0.80427   0.82898   0.82898   0.83794
 Alpha virt. eigenvalues --    0.83794   0.84523   0.84523   0.85746   0.85746
 Alpha virt. eigenvalues --    0.87568   0.87568   0.89225   0.89225   0.89772
 Alpha virt. eigenvalues --    0.89772   0.92912   0.92912   0.93420   0.93420
 Alpha virt. eigenvalues --    1.05736   1.05736   1.06972   1.06972   1.08887
 Alpha virt. eigenvalues --    1.08887   1.15153   1.15153   1.15658   1.15658
 Alpha virt. eigenvalues --    1.17052   1.17052   1.17639   1.17639   1.18375
 Alpha virt. eigenvalues --    1.18375   1.19360   1.19360   1.19405   1.19405
 Alpha virt. eigenvalues --    1.19576   1.19576   1.20440   1.20440   1.20994
 Alpha virt. eigenvalues --    1.20994   1.21889   1.21889   1.22731   1.22731
 Alpha virt. eigenvalues --    1.23607   1.23607   1.23623   1.23623   1.24515
 Alpha virt. eigenvalues --    1.24515   1.24542   1.24542   1.24632   1.24632
 Alpha virt. eigenvalues --    1.27102   1.27102   1.30013   1.30013   1.30309
 Alpha virt. eigenvalues --    1.30309   1.30439   1.30439   1.30998   1.30998
 Alpha virt. eigenvalues --    1.31863   1.31863   1.32281   1.32281   1.33602
 Alpha virt. eigenvalues --    1.33602   1.34007   1.34007   1.34486   1.34486
 Alpha virt. eigenvalues --    1.35384   1.35384   1.36259   1.36259   1.37025
 Alpha virt. eigenvalues --    1.37025   1.37136   1.37136   1.37427   1.37427
 Alpha virt. eigenvalues --    1.37644   1.37644   1.38852   1.38852   1.39284
 Alpha virt. eigenvalues --    1.39285   1.39648   1.39648   1.40010   1.40010
 Alpha virt. eigenvalues --    1.40696   1.40696   1.41002   1.41002   1.41178
 Alpha virt. eigenvalues --    1.41178   1.41269   1.41269   1.42042   1.42042
 Alpha virt. eigenvalues --    1.42247   1.42247   1.43405   1.43405   1.43758
 Alpha virt. eigenvalues --    1.43758   1.46035   1.46035   1.46724   1.46724
 Alpha virt. eigenvalues --    1.48295   1.48295   1.48917   1.48917   1.51842
 Alpha virt. eigenvalues --    1.51842   1.52832   1.52832   1.53822   1.53822
 Alpha virt. eigenvalues --    1.59298   1.59298   1.62680   1.62680   1.62939
 Alpha virt. eigenvalues --    1.62939   1.63520   1.63520   1.64566   1.64566
 Alpha virt. eigenvalues --    1.64970   1.64970   1.65226   1.65226   1.67587
 Alpha virt. eigenvalues --    1.67587   1.68193   1.68193   1.68884   1.68884
 Alpha virt. eigenvalues --    1.69579   1.69579   1.70224   1.70224   1.71492
 Alpha virt. eigenvalues --    1.71492   1.71972   1.71972   1.74787   1.74787
 Alpha virt. eigenvalues --    1.75839   1.75839   1.77389   1.77389   1.80114
 Alpha virt. eigenvalues --    1.80114   1.80466   1.80466   1.82940   1.82940
 Alpha virt. eigenvalues --    1.83591   1.83591   1.83929   1.83929   1.84031
 Alpha virt. eigenvalues --    1.84031   1.84155   1.84155   1.85424   1.85424
 Alpha virt. eigenvalues --    1.85547   1.85547   1.87103   1.87103   1.87291
 Alpha virt. eigenvalues --    1.87291   1.87907   1.87907   1.89620   1.89620
 Alpha virt. eigenvalues --    1.89847   1.89847   1.91346   1.91346   1.92809
 Alpha virt. eigenvalues --    1.92809   1.95539   1.95539   1.96350   1.96350
 Alpha virt. eigenvalues --    1.98892   1.98892   2.00442   2.00442   2.02142
 Alpha virt. eigenvalues --    2.02142   2.04898   2.04898   2.07671   2.07671
 Alpha virt. eigenvalues --    2.09498   2.09498   2.14648   2.14648   2.17537
 Alpha virt. eigenvalues --    2.17537   2.17834   2.17834   2.18277   2.18277
 Alpha virt. eigenvalues --    2.18788   2.18788   2.19866   2.19866   2.23692
 Alpha virt. eigenvalues --    2.23692   2.31656   2.31656   2.44452   2.44452
 Alpha virt. eigenvalues --    2.44648   2.44648   2.49251   2.49251   2.49865
 Alpha virt. eigenvalues --    2.49865   2.51951   2.51951   2.53373   2.53373
 Alpha virt. eigenvalues --    2.53737   2.53737   2.54510   2.54510   2.54978
 Alpha virt. eigenvalues --    2.54978   2.55211   2.55211   2.56999   2.56999
 Alpha virt. eigenvalues --    2.57473   2.57473   2.59080   2.59080   2.59438
 Alpha virt. eigenvalues --    2.59438   2.60899   2.60899   2.64988   2.64988
 Alpha virt. eigenvalues --    2.68141   2.68141   2.68447   2.68447   2.69661
 Alpha virt. eigenvalues --    2.69661   2.70621   2.70621   2.71156   2.71156
 Alpha virt. eigenvalues --    2.73322   2.73322   2.73982   2.73982   2.74078
 Alpha virt. eigenvalues --    2.74078   2.76186   2.76186   2.80108   2.80108
 Alpha virt. eigenvalues --    2.81915   2.81915   2.84396   2.84396   2.84666
 Alpha virt. eigenvalues --    2.84666   2.84822   2.84822   2.85979   2.85979
 Alpha virt. eigenvalues --    2.86991   2.86991   2.89481   2.89481   2.89614
 Alpha virt. eigenvalues --    2.89614   2.93204   2.93204   2.93554   2.93554
 Alpha virt. eigenvalues --    2.95034   2.95034   2.97251   2.97251   2.98071
 Alpha virt. eigenvalues --    2.98071   2.99656   2.99656   3.12078   3.12078
 Alpha virt. eigenvalues --    3.12724   3.12724   3.14026   3.14026   3.14286
 Alpha virt. eigenvalues --    3.14286   3.22039   3.22039   3.22386   3.22386
 Alpha virt. eigenvalues --    3.25390   3.25390   3.30142   3.30142   3.33267
 Alpha virt. eigenvalues --    3.33267   3.34628   3.34628   3.38054   3.38054
 Alpha virt. eigenvalues --    3.38616   3.38616   3.56239   3.56239   3.56942
 Alpha virt. eigenvalues --    3.56942   3.68643   3.68643   3.72558   3.72558
 Alpha virt. eigenvalues --    3.76472   3.76472   3.76603   3.76603   3.83007
 Alpha virt. eigenvalues --    3.83007   3.84583   3.84583   4.33245   4.33245
 Alpha virt. eigenvalues --    4.33658   4.33658   4.42301   4.42301   4.47258
 Alpha virt. eigenvalues --    4.47258   4.50942   4.50942   4.51126   4.51126
 Alpha virt. eigenvalues --    4.55632   4.55632   4.58251   4.58251   4.59087
 Alpha virt. eigenvalues --    4.59087   4.62410   4.62410   4.64086   4.64086
 Alpha virt. eigenvalues --    4.64128   4.64128   4.65250   4.65250   4.74689
 Alpha virt. eigenvalues --    4.74689   4.75647   4.75647   4.89269   4.89269
          Condensed to atoms (all electrons):
               1          2          3          4          5          6
     1  C    4.177618   0.367272  -0.000866   0.358136  -0.000456   0.346467
     2  O    0.367272   8.154974   0.187397  -0.061223   0.004369  -0.132262
     3  H   -0.000866   0.187397   0.275951   0.004114  -0.000195   0.004367
     4  O    0.358136  -0.061223   0.004114   8.148114   0.189299  -0.129153
     5  H   -0.000456   0.004369  -0.000195   0.189299   0.280903   0.001179
     6  O    0.346467  -0.132262   0.004367  -0.129153   0.001179   8.580571
     7  C    0.000118   0.000000   0.000000   0.000031   0.000174   0.000027
     8  O   -0.000059   0.000000   0.000000  -0.001899   0.000659   0.000048
     9  H    0.000395   0.000020   0.000000   0.000594   0.001019   0.000114
    10  O    0.000000   0.000000   0.000000   0.000002   0.000017   0.000000
    11  H    0.000000   0.000000   0.000000   0.000000   0.000000   0.000000
    12  O    0.000239   0.000000   0.000000   0.000072   0.000096  -0.000048
    13  C   -0.011238  -0.013543  -0.000340  -0.000477   0.000126  -0.003457
    14  O   -0.000489  -0.000786   0.001426  -0.000038   0.000000   0.000463
    15  H    0.000435  -0.000009   0.000039   0.000000   0.000000  -0.000026
    16  O   -0.010902   0.002066  -0.000899  -0.000891   0.000012   0.007721
    17  H   -0.001478  -0.002378   0.003316   0.001055   0.000016   0.054071
    18  O   -0.004748  -0.011774   0.059593   0.000576  -0.000056   0.007834
    19  C   -0.011529  -0.000702   0.000204  -0.016311   0.001263  -0.002061
    20  O   -0.016329  -0.000913   0.000040   0.001021  -0.002106  -0.000302
    21  H    0.001273   0.001108   0.000026  -0.002102   0.003956   0.052317
    22  O   -0.000704  -0.000044   0.000000  -0.000912   0.001108   0.000674
    23  H    0.000204   0.000000   0.000000   0.000039   0.000026  -0.000056
    24  O   -0.002016   0.000676  -0.000056  -0.000372   0.052283   0.005333
    25  O    0.000000   0.000000   0.000000   0.000000   0.000000   0.000000
    26  C    0.000000   0.000000   0.000000   0.000000   0.000000   0.000000
    27  O    0.000000   0.000000   0.000000   0.000000   0.000000   0.000000
    28  H    0.000000   0.000000   0.000000   0.000000   0.000000   0.000000
    29  O    0.000000   0.000000   0.000000   0.000000   0.000000   0.000000
    30  H    0.000000   0.000000   0.000000   0.000000   0.000000   0.000000
    31  O    0.000000   0.000000   0.000000   0.000000   0.000000   0.000000
    32  C    0.000000   0.000000   0.000000   0.000000   0.000000   0.000000
    33  O    0.000000   0.000000   0.000000   0.000000   0.000000   0.000000
    34  H    0.000000   0.000000   0.000000   0.000000   0.000000   0.000000
    35  O    0.000000   0.000000   0.000000   0.000000   0.000000   0.000000
    36  H    0.000000   0.000000   0.000000   0.000000   0.000000   0.000000
    37  O    0.000000   0.000000   0.000000   0.000000   0.000000   0.000000
    38  C    0.000000   0.000000   0.000000   0.000000   0.000000   0.000000
    39  O    0.000000   0.000000   0.000000   0.000000   0.000000   0.000000
    40  H    0.000000   0.000000   0.000000   0.000000   0.000000   0.000000
    41  O    0.000000   0.000000   0.000000   0.000000   0.000000   0.000000
    42  H    0.000000   0.000000   0.000000   0.000000   0.000000   0.000000
    43  O    0.000000   0.000000   0.000000   0.000000   0.000000   0.000000
    44  C    0.000000   0.000000   0.000000   0.000000   0.000000   0.000000
    45  O    0.000000   0.000000   0.000000   0.000000   0.000000   0.000000
    46  H    0.000000   0.000000   0.000000   0.000000   0.000000   0.000000
    47  O    0.000000   0.000000   0.000000   0.000000   0.000000   0.000000
    48  H    0.000000   0.000000   0.000000   0.000000   0.000000   0.000000
               7          8          9         10         11         12
     1  C    0.000118  -0.000059   0.000395   0.000000   0.000000   0.000239
     2  O    0.000000   0.000000   0.000020   0.000000   0.000000   0.000000
     3  H    0.000000   0.000000   0.000000   0.000000   0.000000   0.000000
     4  O    0.000031  -0.001899   0.000594   0.000002   0.000000   0.000072
     5  H    0.000174   0.000659   0.001019   0.000017   0.000000   0.000096
     6  O    0.000027   0.000048   0.000114   0.000000   0.000000  -0.000048
     7  C    4.245792   0.319021   0.004675   0.306923   0.005648   0.418211
     8  O    0.319021   8.223729   0.185545  -0.107721   0.011975  -0.127391
[...]
 141305,0.,0.00154766,0.00049242,0.,0.15644068,0.00015081,0.00008392,0.
 ,-0.00009982,-0.00004044,0.,0.00002288,0.00001522,0.,-0.00007380,-0.00
 000967,0.,0.00006615,0.00002558,0.,-0.00006684,-0.00007136,0.,0.000088
 64,-0.00000575,0.,-0.00005984,-0.00000130,0.,0.00003380,-0.00001628,0.
 ,-0.00004100,0.00002106,0.,0.00001264,-0.00000303,0.,-0.00003334,0.000
 00518,0.,0.00007447,0.00011813,0.,-0.00000406,-0.00002485,0.,0.0000093
 0,0.00001586,0.,-0.00006413,-0.00003571,0.,0.00001839,0.00000358,0.,-0
 .00003596,-0.00008045,0.,0.00009196,0.00003302,0.,-0.00005787,-0.00000
 347,0.,0.00006017,0.00002741,0.,-0.00006677,-0.00001142,0.,0.00002926,
 -0.00001632,0.,-0.00006041,-0.00002861,0.,0.00026772,0.00026065,0.,-0.
 00083746,-0.00033253,0.,0.00064829,0.00009379,0.,-0.00041399,0.0000973
 9,0.,0.00027528,-0.00005857,0.,-0.00006765,-0.00001144,0.,0.00170808,0
 .00230515,0.,-0.00027176,-0.00284889,0.,0.00027850,0.00140566,0.,-0.00
 150178,-0.00187896,0.,0.00074978,0.00072288,0.,-0.00016365,-0.00004817
 ,0.,0.00218863,0.01859996,0.,-0.02713448,-0.02237967,0.,0.04534480,-0.
 01773426,0.,-0.02354999,0.02075898,0.,0.00930850,0.00250097,0.,-0.0024
 3505,-0.00182834,0.,0.09445024,0.77643221,0.,0.,-0.00000417,0.,0.,0.00
 000390,0.,0.,-0.00000315,0.,0.,0.00000325,0.,0.,-0.00000234,0.,0.,0.00
 000251,0.,0.,-0.00000257,0.,0.,0.00000240,0.,0.,-0.00000204,0.,0.,0.00
 000201,0.,0.,-0.00000162,0.,0.,0.00000175,0.,0.,-0.00000329,0.,0.,0.00
 000259,0.,0.,-0.00000282,0.,0.,0.00000197,0.,0.,-0.00000197,0.,0.,0.00
 000376,0.,0.,-0.00000246,0.,0.,0.00000181,0.,0.,-0.00000177,0.,0.,0.00
 000153,0.,0.,-0.00000140,0.,0.,0.00000255,0.,0.,0.00002228,0.,0.,-0.00
 002636,0.,0.,0.00002904,0.,0.,-0.00003245,0.,0.,0.00001311,0.,0.,-0.00
 001068,0.,0.,0.00005858,0.,0.,-0.00007239,0.,0.,0.00009886,0.,0.,-0.00
 012411,0.,0.,0.00001880,0.,0.,-0.00002132,0.,0.,0.00137781,0.,0.,-0.00
 069981,0.,0.,0.00622821,0.,0.,-0.01066590,0.,0.,-0.00019061,0.,0.,-0.0
 0021337,0.,0.,0.04098093,0.00005143,-0.00017990,0.,-0.00003559,0.00006
 578,0.,0.00006892,-0.00007410,0.,-0.00004976,0.00008019,0.,-0.00001584
 ,-0.00002707,0.,-0.00001701,0.00013161,0.,-0.00004968,-0.00012242,0.,0
 .00003530,0.00004921,0.,0.00001648,-0.00003823,0.,-0.00000536,0.000031
 46,0.,-0.00000698,-0.00000913,0.,0.00001151,0.00008864,0.,0.00009808,-
 0.00012527,0.,-0.00007754,0.00006481,0.,0.00002783,-0.00001077,0.,-0.0
 0005549,0.00003831,0.,0.00005321,-0.00005752,0.,-0.00005104,0.00009942
 ,0.,0.00000373,-0.00012533,0.,-0.00002635,0.00004722,0.,-0.00000506,-0
 .00001925,0.,0.00000710,0.00003866,0.,0.00001815,-0.00003346,0.,0.0000
 0711,0.00009671,0.,0.00074600,-0.00083555,0.,-0.00128416,0.00091575,0.
 ,0.00103239,-0.00050524,0.,-0.00110107,0.00105382,0.,0.00080024,-0.000
 60691,0.,-0.00019652,0.00006328,0.,0.00171455,-0.00174111,0.,-0.005057
 18,0.00261892,0.,0.00436872,-0.00133955,0.,-0.00401792,-0.00024713,0.,
 0.00274065,-0.00029830,0.,-0.00111251,0.00089535,0.,0.00819651,-0.0245
 2279,0.,0.01314397,0.02650439,0.,-0.02001661,0.00321566,0.,0.01868887,
 -0.00976000,0.,0.00081763,-0.00705989,0.,-0.00171345,0.00056416,0.,-0.
 14512084,-0.07835644,0.,0.81908918,-0.00021083,-0.00011697,0.,0.000139
 80,0.00005626,0.,-0.00003255,-0.00002102,0.,0.00010296,0.00001333,0.,-
 0.00009202,-0.00003570,0.,0.00009342,0.00009954,0.,-0.00012242,0.00000
 586,0.,0.00008283,0.00000241,0.,-0.00004648,0.00002212,0.,0.00005615,-
 0.00002837,0.,-0.00001747,0.00000394,0.,0.00004612,-0.00000575,0.,-0.0
 0010519,-0.00016613,0.,0.00000596,0.00003484,0.,-0.00001333,-0.0000224
 3,0.,0.00009045,0.00005027,0.,-0.00002592,-0.00000492,0.,0.00005096,0.
 00011302,0.,-0.00012780,-0.00004695,0.,0.00008032,0.00000528,0.,-0.000
 08392,-0.00003831,0.,0.00009273,0.00001633,0.,-0.00004023,0.00002209,0
 .,0.00008387,0.00004063,0.,-0.00028434,-0.00033283,0.,0.00091722,0.000
 42370,0.,-0.00070127,-0.00013407,0.,0.00041488,-0.00006633,0.,-0.00028
 645,0.00004314,0.,0.00007412,0.00001625,0.,-0.00169587,-0.00240430,0.,
 0.00033707,0.00305809,0.,-0.00040151,-0.00162373,0.,0.00170304,0.00226
 996,0.,-0.00078527,-0.00077470,0.,0.00014606,0.00008231,0.,-0.00187727
 ,-0.02317860,0.,0.02936763,0.01659491,0.,-0.02806581,0.00849601,0.,0.0
 2436555,-0.03240879,0.,-0.00780749,-0.00254623,0.,0.00245951,0.0016477
 3,0.,-0.08785352,-0.62309142,0.,0.05853019,1.00695444,0.,0.,0.00000680
 ,0.,0.,-0.00000659,0.,0.,0.00000532,0.,0.,-0.00000526,0.,0.,0.00000369
 ,0.,0.,-0.00000397,0.,0.,0.00000379,0.,0.,-0.00000363,0.,0.,0.00000313
 ,0.,0.,-0.00000291,0.,0.,0.00000232,0.,0.,-0.00000257,0.,0.,0.00000531
 ,0.,0.,-0.00000418,0.,0.,0.00000463,0.,0.,-0.00000311,0.,0.,0.00000314
 ,0.,0.,-0.00000630,0.,0.,0.00000374,0.,0.,-0.00000278,0.,0.,0.00000275
 ,0.,0.,-0.00000227,0.,0.,0.00000208,0.,0.,-0.00000395,0.,0.,-0.0000263
 3,0.,0.,0.00002829,0.,0.,-0.00002850,0.,0.,0.00003523,0.,0.,-0.0000138
 1,0.,0.,0.00001219,0.,0.,-0.00008646,0.,0.,0.00009841,0.,0.,-0.0001380
 2,0.,0.,0.00011247,0.,0.,-0.00003373,0.,0.,0.00002839,0.,0.,-0.0006970
 9,0.,0.,0.00092656,0.,0.,0.00005700,0.,0.,-0.00106803,0.,0.,-0.0000883
 8,0.,0.,0.00007950,0.,0.,-0.08846666,0.,0.,0.23774720,-0.00006928,0.00
 005523,0.,0.00004669,-0.00001738,0.,-0.00003832,0.00002906,0.,0.000045
 05,-0.00003306,0.,-0.00001330,0.00000420,0.,0.00002833,-0.00003741,0.,
 -0.00000536,0.00005615,0.,0.00000284,-0.00002147,0.,-0.00001778,0.0000
 2207,0.,0.00001509,-0.00002049,0.,-0.00000084,0.00000499,0.,0.00000524
 ,-0.00004100,0.,-0.00006818,0.00002073,0.,0.00003688,-0.00002200,0.,-0
 .00001577,0.00000005,0.,0.00004528,-0.00000635,0.,-0.00002987,0.000024
 99,0.,0.00003445,-0.00002051,0.,-0.00003030,0.00004587,0.,0.00002978,-
 0.00002010,0.,-0.00001638,0.00000018,0.,0.00001757,-0.00001373,0.,-0.0
 0001718,0.00001998,0.,0.00001549,-0.00003440,0.,-0.00039810,0.00027467
 ,0.,0.00080107,-0.00028612,0.,-0.00063533,0.00018494,0.,0.00058950,-0.
 00047330,0.,-0.00042384,0.00027529,0.,0.00010472,-0.00002363,0.,-0.001
 21976,0.00007242,0.,0.00223654,-0.00028046,0.,-0.00193288,0.00016783,0
 .,0.00216343,0.00061344,0.,-0.00138986,-0.00008358,0.,0.00051984,-0.00
 036635,0.,-0.00396628,0.00618100,0.,0.00180913,-0.00504150,0.,-0.00200
 695,0.00211533,0.,0.00334707,-0.00444388,0.,-0.00281778,0.00241778,0.,
 0.00144972,0.00025601,0.,0.01292086,0.03765366,0.,-0.24733739,0.128010
 25,0.,0.72074052,0.00008359,0.00000134,0.,-0.00005578,-0.00000509,0.,0
 .00002615,-0.00000886,0.,-0.00004616,0.00001274,0.,0.00002824,0.000006
 45,0.,-0.00003583,-0.00000577,0.,0.00003146,-0.00002837,0.,-0.00002093
 ,0.00000976,0.,0.00001955,-0.00001585,0.,-0.00002049,0.00001654,0.,0.0
 0000452,-0.00000332,0.,-0.00001341,0.00002106,0.,0.00005762,0.00002996
 ,0.,-0.00001896,0.00000211,0.,0.00001068,0.00000538,0.,-0.00004323,-0.
 00000900,0.,0.00002047,-0.00001078,0.,-0.00002866,-0.00001730,0.,0.000
 04482,-0.00001087,0.,-0.00003334,0.00000837,0.,0.00002780,0.00000902,0
 .,-0.00003040,0.00000271,0.,0.00001776,-0.00001482,0.,-0.00002733,0.00
 000687,0.,0.00026203,-0.00005817,0.,-0.00060699,0.00004299,0.,0.000476
 30,-0.00005984,0.,-0.00038846,0.00024882,0.,0.00027507,-0.00014557,0.,
 -0.00006837,0.00000772,0.,0.00101548,0.00055126,0.,-0.00116257,-0.0005
 9573,0.,0.00101376,0.00029262,0.,-0.00142232,-0.00080339,0.,0.00086461
 ,0.00022738,0.,-0.00029082,0.00016067,0.,0.00233221,0.00288545,0.,-0.0
 0826736,-0.00264665,0.,0.00982288,-0.00396901,0.,-0.01046044,0.0107200
 3,0.,0.00352215,-0.00042696,0.,-0.00129901,-0.00056633,0.,0.05298209,-
 0.08774953,0.,0.09295914,-0.22573166,0.,0.04982376,0.46437081,0.,0.,-0
 .00000558,0.,0.,0.00000555,0.,0.,-0.00000458,0.,0.,0.00000421,0.,0.,-0
 .00000294,0.,0.,0.00000330,0.,0.,-0.00000291,0.,0.,0.00000280,0.,0.,-0
 .00000244,0.,0.,0.00000220,0.,0.,-0.00000177,0.,0.,0.00000201,0.,0.,-0
 .00000468,0.,0.,0.00000379,0.,0.,-0.00000423,0.,0.,0.00000265,0.,0.,-0
 .00000267,0.,0.,0.00000556,0.,0.,-0.00000302,0.,0.,0.00000229,0.,0.,-0
 .00000227,0.,0.,0.00000181,0.,0.,-0.00000165,0.,0.,0.00000314,0.,0.,0.
 00001309,0.,0.,-0.00001382,0.,0.,0.00001395,0.,0.,-0.00001407,0.,0.,0.
 00000753,0.,0.,-0.00000673,0.,0.,0.00001730,0.,0.,-0.00003750,0.,0.,0.
 00006558,0.,0.,-0.00003977,0.,0.,0.00001637,0.,0.,-0.00001374,0.,0.,-0
 .00021644,0.,0.,-0.00009825,0.,0.,-0.00061873,0.,0.,0.00210189,0.,0.,0
 .00009700,0.,0.,-0.00000416,0.,0.,0.02850669,0.,0.,-0.07256069,0.,0.,0
 .04048506,0.00000504,-0.00002643,0.,-0.00000361,0.00000992,0.,0.000009
 49,-0.00001104,0.,-0.00000614,0.00001130,0.,-0.00000278,-0.00000400,0.
 ,-0.00000170,0.00001960,0.,-0.00000698,-0.00001747,0.,0.00000504,0.000
 00693,0.,0.00000222,-0.00000533,0.,-0.00000084,0.00000452,0.,-0.000000
 96,-0.00000134,0.,0.00000165,0.00001264,0.,0.00001384,-0.00002100,0.,-
 0.00001182,0.00001028,0.,0.00000416,-0.00000204,0.,-0.00000733,0.00000
 627,0.,0.00000754,-0.00000845,0.,-0.00000690,0.00001625,0.,0.00000005,
 -0.00001826,0.,-0.00000340,0.00000688,0.,-0.00000124,-0.00000303,0.,0.
 00000136,0.00000566,0.,0.00000251,-0.00000477,0.,0.00000140,0.00001407
 ,0.,0.00009450,-0.00006739,0.,-0.00019662,0.00007389,0.,0.00015173,-0.
 00004248,0.,-0.00013804,0.00010728,0.,0.00010464,-0.00006835,0.,-0.000
 02628,0.00000666,0.,0.00028649,0.00002019,0.,-0.00046123,0.00001735,0.
 ,0.00037264,-0.00002952,0.,-0.00039897,-0.00014015,0.,0.00029918,0.000
 02368,0.,-0.00012162,0.00008459,0.,0.00053762,0.00033335,0.,-0.0017734
 1,-0.00008844,0.,0.00199940,-0.00100140,0.,-0.00211070,0.00235920,0.,0
 .00084864,-0.00023352,0.,-0.00032021,-0.00010664,0.,0.00709408,-0.0081
 9163,0.,-0.04348327,-0.01866676,0.,-0.39435695,-0.18322072,0.,0.433637
 99,-0.00002064,-0.00000327,0.,0.00001396,0.00000217,0.,-0.00000605,0.0
 0000148,0.,0.00001106,-0.00000194,0.,-0.00000759,-0.00000224,0.,0.0000
 0915,0.00000359,0.,-0.00000913,0.00000394,0.,0.00000617,-0.00000124,0.
 ,-0.00000457,0.00000315,0.,0.00000499,-0.00000332,0.,-0.00000134,0.000
 00057,0.,0.00000373,-0.00000303,0.,-0.00001472,-0.00000978,0.,0.000004
 34,0.00000021,0.,-0.00000276,-0.00000163,0.,0.00001111,0.00000307,0.,-
 0.00000473,0.00000202,0.,0.00000721,0.00000600,0.,-0.00001177,-0.00000
 001,0.,0.00000820,-0.00000113,0.,-0.00000744,-0.00000275,0.,0.00000813
 ,0.00000024,0.,-0.00000414,0.00000296,0.,0.00000721,0.00000044,0.,-0.0
 0002333,-0.00001148,0.,0.00006335,0.00001628,0.,-0.00004804,-0.0000043
 1,0.,0.00002983,-0.00001104,0.,-0.00002364,0.00000772,0.,0.00000667,0.
 00000038,0.,-0.00009090,-0.00008807,0.,0.00007350,0.00010936,0.,-0.000
 05371,-0.00005189,0.,0.00009742,0.00008794,0.,-0.00006497,-0.00003222,
 0.,0.00001860,-0.00000448,0.,-0.00019579,-0.00064641,0.,0.00091178,0.0
 0049491,0.,-0.00091279,0.00021305,0.,0.00075313,-0.00071865,0.,-0.0002
 8703,-0.00005554,0.,0.00011807,0.00006353,0.,-0.00332721,-0.00479415,0
 .,0.03421455,0.02153463,0.,-0.24216623,-0.17648838,0.,0.20392416,0.163
 27669,0.,0.,0.00000429,0.,0.,-0.00000418,0.,0.,0.00000348,0.,0.,-0.000
 00321,0.,0.,0.00000228,0.,0.,-0.00000261,0.,0.,0.00000232,0.,0.,-0.000
 00218,0.,0.,0.00000191,0.,0.,-0.00000177,0.,0.,0.00000143,0.,0.,-0.000
 00162,0.,0.,0.00000369,0.,0.,-0.00000301,0.,0.,0.00000335,0.,0.,-0.000
 00212,0.,0.,0.00000210,0.,0.,-0.00000428,0.,0.,0.00000240,0.,0.,-0.000
 00182,0.,0.,0.00000179,0.,0.,-0.00000146,0.,0.,0.00000132,0.,0.,-0.000
 00245,0.,0.,-0.00001068,0.,0.,0.00001219,0.,0.,-0.00001266,0.,0.,0.000
 01359,0.,0.,-0.00000674,0.,0.,0.00000584,0.,0.,-0.00002296,0.,0.,0.000
 03280,0.,0.,-0.00004153,0.,0.,0.00004610,0.,0.,-0.00001516,0.,0.,0.000
 01125,0.,0.,-0.00023775,0.,0.,0.00009352,0.,0.,-0.00007261,0.,0.,-0.00
 007332,0.,0.,-0.00001165,0.,0.,0.00002166,0.,0.,-0.00402542,0.,0.,-0.0
 0030183,0.,0.,-0.01348665,0.,0.,0.01223769,-0.00002996,0.00011990,0.,0
 .00002039,-0.00004365,0.,-0.00004361,0.00004804,0.,0.00003074,-0.00005
 284,0.,0.00001217,0.00001867,0.,0.00000903,-0.00008787,0.,0.00003530,0
 .00008283,0.,-0.00002509,-0.00003325,0.,-0.00001034,0.00002526,0.,0.00
 000284,-0.00002093,0.,0.00000504,0.00000617,0.,-0.00000859,-0.00005984
 ,0.,-0.00005922,0.00008469,0.,0.00004908,-0.00004230,0.,-0.00001703,0.
 00000753,0.,0.00003288,-0.00002614,0.,-0.00003366,0.00003731,0.,0.0000
 3114,-0.00006675,0.,0.00000046,0.00008430,0.,0.00001569,-0.00003147,0.
 ,0.00000522,0.00001350,0.,-0.00000668,-0.00002618,0.,-0.00001142,0.000
 02209,0.,-0.00000628,-0.00006524,0.,-0.00059806,0.00064688,0.,0.001031
 98,-0.00070028,0.,-0.00084836,0.00041242,0.,0.00091508,-0.00086368,0.,
 -0.00063453,0.00047620,0.,0.00015160,-0.00004800,0.,-0.00157525,0.0012
 0538,0.,0.00415851,-0.00183486,0.,-0.00371571,0.00082526,0.,0.00386826
 ,0.00066426,0.,-0.00229445,0.00017075,0.,0.00088803,-0.00071080,0.,-0.
 01146012,0.04019706,0.,-0.02006627,-0.02518317,0.,0.01640093,0.0004144
 2,0.,-0.01343863,0.01057126,0.,-0.00074421,0.00828536,0.,0.00197916,-0
 .00054468,0.,-0.01499913,-0.06430839,0.,-0.34159653,-0.11099058,0.,-0.
 09380787,-0.00468722,0.,-0.00114509,0.00633608,0.,0.68275236,0.0000761
 0,0.00005546,0.,-0.00004992,-0.00002574,0.,0.00000698,0.00001329,0.,-0
 .00003567,-0.00001008,0.,0.00003567,0.00001492,0.,-0.00003375,-0.00004
 586,0.,0.00004921,0.00000241,0.,-0.00003325,-0.00000297,0.,0.00001704,
 -0.00000665,0.,-0.00002147,0.00000976,0.,0.00000693,-0.00000124,0.,-0.
 00001805,-0.00000130,0.,0.00003071,0.00006992,0.,0.00000383,-0.0000176
 0,0.,0.00000246,0.00000891,0.,-0.00002884,-0.00002099,0.,0.00000580,0.
 00000579,0.,-0.00001466,-0.00004865,0.,0.00004758,0.00002402,0.,-0.000
 02867,-0.00000440,0.,0.00003163,0.00001544,0.,-0.00003522,-0.00000794,
 0.,0.00001444,-0.00000695,0.,-0.00003210,-0.00002010,0.,0.00018481,0.0
 0009406,0.,-0.00050485,-0.00013410,0.,0.00041203,0.00000075,0.,-0.0003
 0415,0.00014615,0.,0.00018459,-0.00005970,0.,-0.00004246,-0.00000430,0
 .,0.00108752,0.00108716,0.,-0.00070403,-0.00146213,0.,0.00096263,0.001
 15040,0.,-0.00197173,-0.00230661,0.,0.00066854,0.00039259,0.,-0.000149
 85,0.00002581,0.,0.01426715,-0.01326800,0.,0.00117592,0.00608100,0.,0.
 00221819,-0.00226472,0.,-0.00434829,0.00425314,0.,0.00267635,-0.003051
 27,0.,-0.00193440,-0.00038125,0.,-0.06520780,-0.04452737,0.,-0.0962163
 6,-0.18571390,0.,0.03723470,0.02179600,0.,0.00571959,-0.00423768,0.,-0
 .04951125,0.46473560,0.,0.,-0.00000657,0.,0.,0.00000641,0.,0.,-0.00000
 506,0.,0.,0.00000521,0.,0.,-0.00000359,0.,0.,0.00000369,0.,0.,-0.00000
 363,0.,0.,0.00000354,0.,0.,-0.00000305,0.,0.,0.00000280,0.,0.,-0.00000
 218,0.,0.,0.00000240,0.,0.,-0.00000476,0.,0.,0.00000364,0.,0.,-0.00000
 407,0.,0.,0.00000281,0.,0.,-0.00000288,0.,0.,0.00000581,0.,0.,-0.00000
 347,0.,0.,0.00000256,0.,0.,-0.00000255,0.,0.,0.00000208,0.,0.,-0.00000
 194,0.,0.,0.00000378,0.,0.,0.00002898,0.,0.,-0.00002844,0.,0.,0.000034
 52,0.,0.,-0.00003444,0.,0.,0.00001393,0.,0.,-0.00001264,0.,0.,0.000072
 31,0.,0.,-0.00011961,0.,0.,0.00027175,0.,0.,-0.00047423,0.,0.,0.000058
 68,0.,0.,-0.00003541,0.,0.,0.00570241,0.,0.,0.00000974,0.,0.,0.0006291
 1,0.,0.,-0.00110185,0.,0.,-0.00054096,0.,0.,-0.00004765,0.,0.,0.031444
 40,0.,0.,-0.07451153,0.,0.,0.01223112,0.,0.,0.00345190,0.,0.,0.0469670
 7,0.00007247,-0.00002519,0.,-0.00004753,0.00000470,0.,0.00002825,-0.00
 001593,0.,-0.00004318,0.00002173,0.,0.00001949,0.00000045,0.,-0.000029
 43,0.00001454,0.,0.00001648,-0.00004648,0.,-0.00001034,0.00001704,0.,0
 .00001867,-0.00001942,0.,-0.00001778,0.00001955,0.,0.00000222,-0.00000
 457,0.,-0.00000843,0.00003380,0.,0.00005243,0.00000487,0.,-0.00002285,
 0.00000974,0.,0.00001034,0.00000230,0.,-0.00003766,-0.00000085,0.,0.00
 002217,-0.00001589,0.,-0.00002667,0.00000077,0.,0.00003437,-0.00002999
 ,0.,-0.00002972,0.00001453,0.,0.00002009,0.00000375,0.,-0.00002202,0.0
 0000910,0.,0.00001722,-0.00001785,0.,-0.00002015,0.00002221,0.,0.00057
 502,-0.00041357,0.,-0.00110171,0.00041503,0.,0.00091579,-0.00030495,0.
 ,-0.00090394,0.00075528,0.,0.00058942,-0.00038887,0.,-0.00013810,0.000
 02986,0.,0.00194573,-0.00029060,0.,-0.00381724,0.00072418,0.,0.0036771
 8,-0.00028978,0.,-0.00562918,-0.00093653,0.,0.00232737,0.00011002,0.,-
 0.00077539,0.00056809,0.,-0.01118896,-0.02179155,0.,0.01809748,0.02214
 116,0.,-0.01234486,-0.00289511,0.,0.00778193,-0.00790835,0.,0.00276367
 ,-0.00893712,0.,-0.00283583,0.00007092,0.,0.00783754,0.01436414,0.,-0.
 05930442,0.01308322,0.,0.00361046,-0.00347336,0.,-0.00089513,0.0006461
 3,0.,-0.20521978,0.15410636,0.,0.25403454,-0.00007797,-0.00002092,0.,0
 .00005100,0.00001296,0.,-0.00001688,-0.00000027,0.,0.00004111,-0.00000
 401,0.,-0.00003042,-0.00000906,0.,0.00003350,0.00002009,0.,-0.00003823
 ,0.00002212,0.,0.00002526,-0.00000665,0.,-0.00001942,0.00001349,0.,0.0
 0002207,-0.00001585,0.,-0.00000533,0.00000315,0.,0.00001507,-0.0000162
 8,0.,-0.00004212,-0.00004144,0.,0.00000871,0.00000523,0.,-0.00000622,-
 0.00000594,0.,0.00003401,0.00001220,0.,-0.00001373,0.00000412,0.,0.000
 02060,0.00002702,0.,-0.00004474,0.00000065,0.,0.00003125,-0.00000463,0
 .,-0.00002811,-0.00001079,0.,0.00003156,0.00000007,0.,-0.00001714,0.00
 001308,0.,0.00002878,0.00000086,0.,-0.00045860,0.00009694,0.,0.0010535
 1,-0.00006640,0.,-0.00086348,0.00014656,0.,0.00075438,-0.00051312,0.,-
 0.00047279,0.00024884,0.,0.00010724,-0.00001106,0.,-0.00217896,-0.0013
 1119,0.,0.00233034,0.00173299,0.,-0.00287797,-0.00190342,0.,0.00484068
 ,0.00473522,0.,-0.00170759,-0.00054003,0.,0.00050564,-0.00026909,0.,-0
 .00801575,0.01594112,0.,-0.00868444,-0.02763896,0.,0.00906404,0.002844
 65,0.,-0.00769660,0.00226325,0.,-0.00434430,0.00876218,0.,0.00368738,0
 .00028840,0.,-0.00186038,-0.01589468,0.,-0.00005551,0.03688602,0.,-0.0
 1211161,-0.00206481,0.,-0.00081411,0.00134033,0.,0.18918373,-0.2423510
 8,0.,-0.15938747,0.21727811,0.,0.,0.00000526,0.,0.,-0.00000503,0.,0.,0
 .00000391,0.,0.,-0.00000426,0.,0.,0.00000297,0.,0.,-0.00000295,0.,0.,0
 .00000313,0.,0.,-0.00000305,0.,0.,0.00000257,0.,0.,-0.00000244,0.,0.,0
 .00000191,0.,0.,-0.00000204,0.,0.,0.00000370,0.,0.,-0.00000280,0.,0.,0
 .00000308,0.,0.,-0.00000222,0.,0.,0.00000229,0.,0.,-0.00000446,0.,0.,0
 .00000288,0.,0.,-0.00000209,0.,0.,0.00000208,0.,0.,-0.00000175,0.,0.,0
 .00000164,0.,0.,-0.00000316,0.,0.,-0.00003243,0.,0.,0.00003522,0.,0.,-
 0.00003446,0.,0.,0.00005822,0.,0.,-0.00001408,0.,0.,0.00001359,0.,0.,-
 0.00018910,0.,0.,0.00014749,0.,0.,-0.00046498,0.,0.,0.00108164,0.,0.,-
 0.00005214,0.,0.,0.00004255,0.,0.,-0.00943302,0.,0.,-0.00106822,0.,0.,
 -0.00099327,0.,0.,0.00154642,0.,0.,0.00175459,0.,0.,-0.00005555,0.,0.,
 -0.00423005,0.,0.,-0.00110339,0.,0.,0.00355440,0.,0.,0.00239276,0.,0.,
 -0.02401014,0.,0.,0.03105478\\-0.00001879,0.00006897,0.,0.00000722,-0.
 00004023,0.,0.00000220,0.00001984,0.,-0.00001525,0.00002096,0.,-0.0000
 1426,-0.00002402,0.,0.00002165,-0.00006435,0.,0.00002265,-0.00000942,0
 .,-0.00001899,0.00001690,0.,0.00000486,-0.00000779,0.,-0.00001776,-0.0
 0000099,0.,0.00000164,-0.00000340,0.,-0.00000257,-0.00000606,0.,-0.000
 02118,0.00002155,0.,0.00001555,-0.00001414,0.,-0.00001132,0.00000515,0
 .,0.00005425,-0.00001687,0.,-0.00002207,0.00002771,0.,-0.00000614,-0.0
 0001349,0.,-0.00004564,-0.00004430,0.,0.00001990,-0.00000682,0.,-0.000
 00986,0.00002202,0.,0.00004818,0.00000988,0.,-0.00002108,-0.00000370,0
 .,0.00003120,0.00004812,0.,0.00000614,0.00001349,0.,0.00002118,-0.0000
 2155,0.,-0.00005425,0.00001687,0.,0.00002207,-0.00002771,0.,-0.0000155
 5,0.00001414,0.,0.00001132,-0.00000515,0.,-0.00002165,0.00006435,0.,0.
 00001879,-0.00006897,0.,0.00001525,-0.00002096,0.,0.00001426,0.0000240
 2,0.,-0.00000722,0.00004023,0.,-0.00000220,-0.00001984,0.,-0.00003120,
 -0.00004812,0.,0.00004564,0.00004430,0.,-0.00004818,-0.00000988,0.,0.0
 0002108,0.00000370,0.,-0.00001990,0.00000682,0.,0.00000986,-0.00002202
 ,0.,0.00000257,0.00000606,0.,-0.00002265,0.00000942,0.,0.00001776,0.00
 000099,0.,-0.00000164,0.00000340,0.,0.00001899,-0.00001690,0.,-0.00000
 486,0.00000779,0.\\\@


 ...THE PHYSICISTS HAVE MADE THEIR UNIVERSE, AND IF YOU DO NOT LIKE
 IT, YOU MUST MAKE YOUR OWN.
                               -- E. R. HARRISON IN "COSMOLOGY" (1980)
 Job cpu time:       0 days  4 hours 36 minutes  2.2 seconds.
 File lengths (MBytes):  RWF=   1332 Int=      0 D2E=      0 Chk=     36 Scr=      1
 Normal termination of Gaussian 09 at Fri Jun 21 17:54:53 2019.
